MODEL 1
REMARK VINA RESULT:    -6.152      0.000      0.000
REMARK INTER + INTRA:         -13.786
REMARK INTER:                 -11.188
REMARK INTRA:                  -2.598
REMARK UNBOUND:                -2.598
REMARK SMILES CCCCC/C=C\C/C=C\CCCCCCCC(=O)[O-]
REMARK SMILES IDX 11 1 12 2 13 3 14 4 15 5 16 6 17 7 18 8 19 9 20 10 10 11
REMARK SMILES IDX 9 12 8 13 7 14 6 15 5 16 4 17 3 18 2 19 1 20
REMARK H PARENT
REMARK INDEX MAP 8 1 6 2 4 3 3 4 5 5 7 6 9 7 18 8 2 9 1 10 12 11 15 12 16 13
REMARK INDEX MAP 19 14 17 15 13 16 10 17 11 18 14 19 20 20
ROOT
ATOM      1  C   UNL     1       8.400  30.159  16.954  1.00  0.00     0.027 C 
ENDROOT
BRANCH   1   2
ATOM      2  C   UNL     1       7.088  29.404  16.708  1.00  0.00     0.004 C 
BRANCH   2   3
ATOM      3  C   UNL     1       5.934  29.892  17.589  1.00  0.00     0.000 C 
BRANCH   3   4
ATOM      4  C   UNL     1       6.402  30.595  18.868  1.00  0.00     0.000 C 
BRANCH   4   5
ATOM      5  C   UNL     1       5.909  32.040  18.980  1.00  0.00     0.000 C 
BRANCH   5   6
ATOM      6  C   UNL     1       4.996  32.406  17.803  1.00  0.00     0.006 C 
BRANCH   6   7
ATOM      7  C   UNL     1       5.552  33.561  16.970  1.00  0.00     0.053 C 
BRANCH   7   8
ATOM      8  C   UNL     1       4.492  34.282  16.175  1.00  0.00     0.041 C 
ATOM      9  O   UNL     1       4.687  35.050  15.245  1.00  0.00    -0.550 OA
ATOM     10  O   UNL     1       3.257  33.936  16.620  1.00  0.00    -0.550 OA
ENDBRANCH   7   8
ENDBRANCH   6   7
ENDBRANCH   5   6
ENDBRANCH   4   5
ENDBRANCH   3   4
ENDBRANCH   2   3
ENDBRANCH   1   2
BRANCH   1  11
ATOM     11  C   UNL     1       8.637  31.265  15.965  1.00  0.00    -0.031 C 
ATOM     12  C   UNL     1       9.025  32.502  16.311  1.00  0.00    -0.027 C 
BRANCH  12  13
ATOM     13  C   UNL     1       9.271  32.933  17.727  1.00  0.00     0.054 C 
BRANCH  13  14
ATOM     14  C   UNL     1      10.633  32.516  18.201  1.00  0.00    -0.027 C 
ATOM     15  C   UNL     1      10.847  31.845  19.344  1.00  0.00    -0.031 C 
BRANCH  15  16
ATOM     16  C   UNL     1       9.817  31.394  20.345  1.00  0.00     0.027 C 
BRANCH  16  17
ATOM     17  C   UNL     1       9.532  32.340  21.517  1.00  0.00     0.004 C 
BRANCH  17  18
ATOM     18  C   UNL     1       8.195  33.064  21.330  1.00  0.00     0.000 C 
BRANCH  18  19
ATOM     19  C   UNL     1       7.516  33.435  22.650  1.00  0.00    -0.003 C 
ATOM     20  C   UNL     1       6.019  33.171  22.658  1.00  0.00     0.004 C 
ENDBRANCH  18  19
ENDBRANCH  17  18
ENDBRANCH  16  17
ENDBRANCH  15  16
ENDBRANCH  13  14
ENDBRANCH  12  13
ENDBRANCH   1  11
TORSDOF 14
ENDMDL
MODEL 2
REMARK VINA RESULT:    -6.097      3.806      6.492
REMARK INTER + INTRA:         -13.685
REMARK INTER:                 -11.770
REMARK INTRA:                  -1.915
REMARK UNBOUND:                -2.598
REMARK SMILES CCCCC/C=C\C/C=C\CCCCCCCC(=O)[O-]
REMARK SMILES IDX 11 1 12 2 13 3 14 4 15 5 16 6 17 7 18 8 19 9 20 10 10 11
REMARK SMILES IDX 9 12 8 13 7 14 6 15 5 16 4 17 3 18 2 19 1 20
REMARK H PARENT
REMARK INDEX MAP 8 1 6 2 4 3 3 4 5 5 7 6 9 7 18 8 2 9 1 10 12 11 15 12 16 13
REMARK INDEX MAP 19 14 17 15 13 16 10 17 11 18 14 19 20 20
ROOT
ATOM      1  C   UNL     1       8.297  32.984  17.305  1.00  0.00     0.027 C 
ENDROOT
BRANCH   1   2
ATOM      2  C   UNL     1       9.581  33.549  17.925  1.00  0.00     0.004 C 
BRANCH   2   3
ATOM      3  C   UNL     1      10.818  32.687  17.647  1.00  0.00     0.000 C 
BRANCH   3   4
ATOM      4  C   UNL     1      11.223  31.808  18.836  1.00  0.00     0.000 C 
BRANCH   4   5
ATOM      5  C   UNL     1      10.055  31.470  19.766  1.00  0.00     0.000 C 
BRANCH   5   6
ATOM      6  C   UNL     1      10.385  31.828  21.220  1.00  0.00     0.006 C 
BRANCH   6   7
ATOM      7  C   UNL     1      11.867  31.645  21.544  1.00  0.00     0.053 C 
BRANCH   7   8
ATOM      8  C   UNL     1      12.191  31.886  22.998  1.00  0.00     0.041 C 
ATOM      9  O   UNL     1      13.296  31.812  23.512  1.00  0.00    -0.550 OA
ATOM     10  O   UNL     1      11.067  32.235  23.675  1.00  0.00    -0.550 OA
ENDBRANCH   7   8
ENDBRANCH   6   7
ENDBRANCH   5   6
ENDBRANCH   4   5
ENDBRANCH   3   4
ENDBRANCH   2   3
ENDBRANCH   1   2
BRANCH   1  11
ATOM     11  C   UNL     1       8.533  32.278  16.001  1.00  0.00    -0.031 C 
ATOM     12  C   UNL     1       8.470  30.946  15.853  1.00  0.00    -0.027 C 
BRANCH  12  13
ATOM     13  C   UNL     1       8.155  29.998  16.972  1.00  0.00     0.054 C 
BRANCH  13  14
ATOM     14  C   UNL     1       6.759  29.455  16.857  1.00  0.00    -0.027 C 
ATOM     15  C   UNL     1       5.737  29.870  17.623  1.00  0.00    -0.031 C 
BRANCH  15  16
ATOM     16  C   UNL     1       5.773  30.914  18.707  1.00  0.00     0.027 C 
BRANCH  16  17
ATOM     17  C   UNL     1       4.854  32.128  18.527  1.00  0.00     0.004 C 
BRANCH  17  18
ATOM     18  C   UNL     1       4.659  32.458  17.044  1.00  0.00     0.000 C 
BRANCH  18  19
ATOM     19  C   UNL     1       3.813  33.711  16.807  1.00  0.00    -0.003 C 
ATOM     20  C   UNL     1       4.537  34.793  16.022  1.00  0.00     0.004 C 
ENDBRANCH  18  19
ENDBRANCH  17  18
ENDBRANCH  16  17
ENDBRANCH  15  16
ENDBRANCH  13  14
ENDBRANCH  12  13
ENDBRANCH   1  11
TORSDOF 14
ENDMDL
MODEL 3
REMARK VINA RESULT:    -5.970      4.120      6.806
REMARK INTER + INTRA:         -13.455
REMARK INTER:                 -11.390
REMARK INTRA:                  -2.065
REMARK UNBOUND:                -2.598
REMARK SMILES CCCCC/C=C\C/C=C\CCCCCCCC(=O)[O-]
REMARK SMILES IDX 11 1 12 2 13 3 14 4 15 5 16 6 17 7 18 8 19 9 20 10 10 11
REMARK SMILES IDX 9 12 8 13 7 14 6 15 5 16 4 17 3 18 2 19 1 20
REMARK H PARENT
REMARK INDEX MAP 8 1 6 2 4 3 3 4 5 5 7 6 9 7 18 8 2 9 1 10 12 11 15 12 16 13
REMARK INDEX MAP 19 14 17 15 13 16 10 17 11 18 14 19 20 20
ROOT
ATOM      1  C   UNL     1      10.611  32.933  17.883  1.00  0.00     0.027 C 
ENDROOT
BRANCH   1   2
ATOM      2  C   UNL     1      10.756  31.689  18.766  1.00  0.00     0.004 C 
BRANCH   2   3
ATOM      3  C   UNL     1       9.603  31.513  19.760  1.00  0.00     0.000 C 
BRANCH   3   4
ATOM      4  C   UNL     1      10.033  31.672  21.222  1.00  0.00     0.000 C 
BRANCH   4   5
ATOM      5  C   UNL     1      11.530  31.441  21.443  1.00  0.00     0.000 C 
BRANCH   5   6
ATOM      6  C   UNL     1      11.951  31.856  22.858  1.00  0.00     0.006 C 
BRANCH   6   7
ATOM      7  C   UNL     1      10.778  32.385  23.683  1.00  0.00     0.053 C 
BRANCH   7   8
ATOM      8  C   UNL     1      11.169  32.769  25.090  1.00  0.00     0.041 C 
ATOM      9  O   UNL     1      12.268  33.162  25.450  1.00  0.00    -0.550 OA
ATOM     10  O   UNL     1      10.102  32.646  25.921  1.00  0.00    -0.550 OA
ENDBRANCH   7   8
ENDBRANCH   6   7
ENDBRANCH   5   6
ENDBRANCH   4   5
ENDBRANCH   3   4
ENDBRANCH   2   3
ENDBRANCH   1   2
BRANCH   1  11
ATOM     11  C   UNL     1       9.921  32.652  16.578  1.00  0.00    -0.031 C 
ATOM     12  C   UNL     1       8.606  32.827  16.378  1.00  0.00    -0.027 C 
BRANCH  12  13
ATOM     13  C   UNL     1       7.662  33.327  17.432  1.00  0.00     0.054 C 
BRANCH  13  14
ATOM     14  C   UNL     1       6.259  33.437  16.908  1.00  0.00    -0.027 C 
ATOM     15  C   UNL     1       5.194  32.897  17.522  1.00  0.00    -0.031 C 
BRANCH  15  16
ATOM     16  C   UNL     1       5.182  32.104  18.801  1.00  0.00     0.027 C 
BRANCH  16  17
ATOM     17  C   UNL     1       5.065  30.581  18.670  1.00  0.00     0.004 C 
BRANCH  17  18
ATOM     18  C   UNL     1       6.447  29.922  18.633  1.00  0.00     0.000 C 
BRANCH  18  19
ATOM     19  C   UNL     1       6.933  29.612  17.215  1.00  0.00    -0.003 C 
ATOM     20  C   UNL     1       8.413  29.271  17.141  1.00  0.00     0.004 C 
ENDBRANCH  18  19
ENDBRANCH  17  18
ENDBRANCH  16  17
ENDBRANCH  15  16
ENDBRANCH  13  14
ENDBRANCH  12  13
ENDBRANCH   1  11
TORSDOF 14
ENDMDL
MODEL 4
REMARK VINA RESULT:    -5.944      2.326      5.110
REMARK INTER + INTRA:         -13.407
REMARK INTER:                 -10.928
REMARK INTRA:                  -2.479
REMARK UNBOUND:                -2.598
REMARK SMILES CCCCC/C=C\C/C=C\CCCCCCCC(=O)[O-]
REMARK SMILES IDX 11 1 12 2 13 3 14 4 15 5 16 6 17 7 18 8 19 9 20 10 10 11
REMARK SMILES IDX 9 12 8 13 7 14 6 15 5 16 4 17 3 18 2 19 1 20
REMARK H PARENT
REMARK INDEX MAP 8 1 6 2 4 3 3 4 5 5 7 6 9 7 18 8 2 9 1 10 12 11 15 12 16 13
REMARK INDEX MAP 19 14 17 15 13 16 10 17 11 18 14 19 20 20
ROOT
ATOM      1  C   UNL     1       7.834  33.466  22.038  1.00  0.00     0.027 C 
ENDROOT
BRANCH   1   2
ATOM      2  C   UNL     1       6.401  33.356  22.571  1.00  0.00     0.004 C 
BRANCH   2   3
ATOM      3  C   UNL     1       5.555  32.317  21.827  1.00  0.00     0.000 C 
BRANCH   3   4
ATOM      4  C   UNL     1       6.170  31.877  20.494  1.00  0.00     0.000 C 
BRANCH   4   5
ATOM      5  C   UNL     1       5.175  31.899  19.330  1.00  0.00     0.000 C 
BRANCH   5   6
ATOM      6  C   UNL     1       5.535  30.847  18.274  1.00  0.00     0.006 C 
BRANCH   6   7
ATOM      7  C   UNL     1       6.775  30.039  18.656  1.00  0.00     0.053 C 
BRANCH   7   8
ATOM      8  C   UNL     1       7.501  29.468  17.462  1.00  0.00     0.041 C 
ATOM      9  O   UNL     1       8.620  28.977  17.467  1.00  0.00    -0.550 OA
ATOM     10  O   UNL     1       6.717  29.547  16.357  1.00  0.00    -0.550 OA
ENDBRANCH   7   8
ENDBRANCH   6   7
ENDBRANCH   5   6
ENDBRANCH   4   5
ENDBRANCH   3   4
ENDBRANCH   2   3
ENDBRANCH   1   2
BRANCH   1  11
ATOM     11  C   UNL     1       8.862  33.572  23.128  1.00  0.00    -0.031 C 
ATOM     12  C   UNL     1       9.878  32.709  23.280  1.00  0.00    -0.027 C 
BRANCH  12  13
ATOM     13  C   UNL     1      10.114  31.533  22.378  1.00  0.00     0.054 C 
BRANCH  13  14
ATOM     14  C   UNL     1      11.373  31.697  21.576  1.00  0.00    -0.027 C 
ATOM     15  C   UNL     1      11.407  31.664  20.235  1.00  0.00    -0.031 C 
BRANCH  15  16
ATOM     16  C   UNL     1      10.248  31.463  19.296  1.00  0.00     0.027 C 
BRANCH  16  17
ATOM     17  C   UNL     1      10.109  32.466  18.145  1.00  0.00     0.004 C 
BRANCH  17  18
ATOM     18  C   UNL     1       8.683  33.018  18.062  1.00  0.00     0.000 C 
BRANCH  18  19
ATOM     19  C   UNL     1       8.146  33.101  16.632  1.00  0.00    -0.003 C 
ATOM     20  C   UNL     1       8.949  32.280  15.634  1.00  0.00     0.004 C 
ENDBRANCH  18  19
ENDBRANCH  17  18
ENDBRANCH  16  17
ENDBRANCH  15  16
ENDBRANCH  13  14
ENDBRANCH  12  13
ENDBRANCH   1  11
TORSDOF 14
ENDMDL
MODEL 5
REMARK VINA RESULT:    -5.934      4.951      7.474
REMARK INTER + INTRA:         -13.388
REMARK INTER:                 -11.441
REMARK INTRA:                  -1.947
REMARK UNBOUND:                -2.598
REMARK SMILES CCCCC/C=C\C/C=C\CCCCCCCC(=O)[O-]
REMARK SMILES IDX 11 1 12 2 13 3 14 4 15 5 16 6 17 7 18 8 19 9 20 10 10 11
REMARK SMILES IDX 9 12 8 13 7 14 6 15 5 16 4 17 3 18 2 19 1 20
REMARK H PARENT
REMARK INDEX MAP 8 1 6 2 4 3 3 4 5 5 7 6 9 7 18 8 2 9 1 10 12 11 15 12 16 13
REMARK INDEX MAP 19 14 17 15 13 16 10 17 11 18 14 19 20 20
ROOT
ATOM      1  C   UNL     1       9.572  31.769  19.946  1.00  0.00     0.027 C 
ENDROOT
BRANCH   1   2
ATOM      2  C   UNL     1      10.026  31.107  21.252  1.00  0.00     0.004 C 
BRANCH   2   3
ATOM      3  C   UNL     1      11.493  31.390  21.597  1.00  0.00     0.000 C 
BRANCH   3   4
ATOM      4  C   UNL     1      11.676  32.055  22.965  1.00  0.00     0.000 C 
BRANCH   4   5
ATOM      5  C   UNL     1      10.359  32.499  23.606  1.00  0.00     0.000 C 
BRANCH   5   6
ATOM      6  C   UNL     1      10.539  32.781  25.102  1.00  0.00     0.006 C 
BRANCH   6   7
ATOM      7  C   UNL     1      12.009  32.889  25.503  1.00  0.00     0.053 C 
BRANCH   7   8
ATOM      8  C   UNL     1      12.222  33.679  26.771  1.00  0.00     0.041 C 
ATOM      9  O   UNL     1      11.902  34.843  26.957  1.00  0.00    -0.550 OA
ATOM     10  O   UNL     1      12.805  32.897  27.716  1.00  0.00    -0.550 OA
ENDBRANCH   7   8
ENDBRANCH   6   7
ENDBRANCH   5   6
ENDBRANCH   4   5
ENDBRANCH   3   4
ENDBRANCH   2   3
ENDBRANCH   1   2
BRANCH   1  11
ATOM     11  C   UNL     1      10.712  32.107  19.029  1.00  0.00    -0.031 C 
ATOM     12  C   UNL     1      10.556  32.687  17.829  1.00  0.00    -0.027 C 
BRANCH  12  13
ATOM     13  C   UNL     1       9.223  33.071  17.256  1.00  0.00     0.054 C 
BRANCH  13  14
ATOM     14  C   UNL     1       8.991  32.425  15.920  1.00  0.00    -0.027 C 
ATOM     15  C   UNL     1       8.501  31.184  15.772  1.00  0.00    -0.031 C 
BRANCH  15  16
ATOM     16  C   UNL     1       8.102  30.223  16.860  1.00  0.00     0.027 C 
BRANCH  16  17
ATOM     17  C   UNL     1       6.601  30.074  17.134  1.00  0.00     0.004 C 
BRANCH  17  18
ATOM     18  C   UNL     1       6.274  30.380  18.599  1.00  0.00     0.000 C 
BRANCH  18  19
ATOM     19  C   UNL     1       5.977  31.859  18.857  1.00  0.00    -0.003 C 
ATOM     20  C   UNL     1       5.302  32.556  17.686  1.00  0.00     0.004 C 
ENDBRANCH  18  19
ENDBRANCH  17  18
ENDBRANCH  16  17
ENDBRANCH  15  16
ENDBRANCH  13  14
ENDBRANCH  12  13
ENDBRANCH   1  11
TORSDOF 14
ENDMDL
MODEL 6
REMARK VINA RESULT:    -5.864      3.026      4.978
REMARK INTER + INTRA:         -13.261
REMARK INTER:                 -11.635
REMARK INTRA:                  -1.626
REMARK UNBOUND:                -2.598
REMARK SMILES CCCCC/C=C\C/C=C\CCCCCCCC(=O)[O-]
REMARK SMILES IDX 11 1 12 2 13 3 14 4 15 5 16 6 17 7 18 8 19 9 20 10 10 11
REMARK SMILES IDX 9 12 8 13 7 14 6 15 5 16 4 17 3 18 2 19 1 20
REMARK H PARENT
REMARK INDEX MAP 8 1 6 2 4 3 3 4 5 5 7 6 9 7 18 8 2 9 1 10 12 11 15 12 16 13
REMARK INDEX MAP 19 14 17 15 13 16 10 17 11 18 14 19 20 20
ROOT
ATOM      1  C   UNL     1       5.702  30.077  18.176  1.00  0.00     0.027 C 
ENDROOT
BRANCH   1   2
ATOM      2  C   UNL     1       7.168  29.918  17.756  1.00  0.00     0.004 C 
BRANCH   2   3
ATOM      3  C   UNL     1       7.435  30.355  16.312  1.00  0.00     0.000 C 
BRANCH   3   4
ATOM      4  C   UNL     1       8.679  31.239  16.166  1.00  0.00     0.000 C 
BRANCH   4   5
ATOM      5  C   UNL     1       8.452  32.684  16.620  1.00  0.00     0.000 C 
BRANCH   5   6
ATOM      6  C   UNL     1       9.512  33.116  17.640  1.00  0.00     0.006 C 
BRANCH   6   7
ATOM      7  C   UNL     1      10.572  32.039  17.872  1.00  0.00     0.053 C 
BRANCH   7   8
ATOM      8  C   UNL     1      10.548  31.474  19.271  1.00  0.00     0.041 C 
ATOM      9  O   UNL     1       9.567  31.039  19.855  1.00  0.00    -0.550 OA
ATOM     10  O   UNL     1      11.798  31.484  19.801  1.00  0.00    -0.550 OA
ENDBRANCH   7   8
ENDBRANCH   6   7
ENDBRANCH   5   6
ENDBRANCH   4   5
ENDBRANCH   3   4
ENDBRANCH   2   3
ENDBRANCH   1   2
BRANCH   1  11
ATOM     11  C   UNL     1       5.280  31.513  18.311  1.00  0.00    -0.031 C 
ATOM     12  C   UNL     1       5.241  32.170  19.480  1.00  0.00    -0.027 C 
BRANCH  12  13
ATOM     13  C   UNL     1       5.614  31.555  20.796  1.00  0.00     0.054 C 
BRANCH  13  14
ATOM     14  C   UNL     1       5.388  32.508  21.935  1.00  0.00    -0.027 C 
ATOM     15  C   UNL     1       6.355  33.272  22.465  1.00  0.00    -0.031 C 
BRANCH  15  16
ATOM     16  C   UNL     1       7.802  33.331  22.054  1.00  0.00     0.027 C 
BRANCH  16  17
ATOM     17  C   UNL     1       8.837  33.439  23.180  1.00  0.00     0.004 C 
BRANCH  17  18
ATOM     18  C   UNL     1      10.082  32.603  22.868  1.00  0.00     0.000 C 
BRANCH  18  19
ATOM     19  C   UNL     1      10.884  32.222  24.114  1.00  0.00    -0.003 C 
ATOM     20  C   UNL     1      10.414  32.926  25.378  1.00  0.00     0.004 C 
ENDBRANCH  18  19
ENDBRANCH  17  18
ENDBRANCH  16  17
ENDBRANCH  15  16
ENDBRANCH  13  14
ENDBRANCH  12  13
ENDBRANCH   1  11
TORSDOF 14
ENDMDL
MODEL 7
REMARK VINA RESULT:    -5.844      5.335      8.139
REMARK INTER + INTRA:         -13.225
REMARK INTER:                 -11.865
REMARK INTRA:                  -1.359
REMARK UNBOUND:                -2.598
REMARK SMILES CCCCC/C=C\C/C=C\CCCCCCCC(=O)[O-]
REMARK SMILES IDX 11 1 12 2 13 3 14 4 15 5 16 6 17 7 18 8 19 9 20 10 10 11
REMARK SMILES IDX 9 12 8 13 7 14 6 15 5 16 4 17 3 18 2 19 1 20
REMARK H PARENT
REMARK INDEX MAP 8 1 6 2 4 3 3 4 5 5 7 6 9 7 18 8 2 9 1 10 12 11 15 12 16 13
REMARK INDEX MAP 19 14 17 15 13 16 10 17 11 18 14 19 20 20
ROOT
ATOM      1  C   UNL     1      11.030  31.409  21.762  1.00  0.00     0.027 C 
ENDROOT
BRANCH   1   2
ATOM      2  C   UNL     1      11.395  32.159  23.048  1.00  0.00     0.004 C 
BRANCH   2   3
ATOM      3  C   UNL     1      10.173  32.651  23.832  1.00  0.00     0.000 C 
BRANCH   3   4
ATOM      4  C   UNL     1      10.452  32.855  25.325  1.00  0.00     0.000 C 
BRANCH   4   5
ATOM      5  C   UNL     1      11.923  33.146  25.632  1.00  0.00     0.000 C 
BRANCH   5   6
ATOM      6  C   UNL     1      12.065  34.366  26.551  1.00  0.00     0.006 C 
BRANCH   6   7
ATOM      7  C   UNL     1      10.736  35.086  26.774  1.00  0.00     0.053 C 
BRANCH   7   8
ATOM      8  C   UNL     1      10.339  35.164  28.228  1.00  0.00     0.041 C 
ATOM      9  O   UNL     1       9.720  36.074  28.758  1.00  0.00    -0.550 OA
ATOM     10  O   UNL     1      10.745  34.046  28.883  1.00  0.00    -0.550 OA
ENDBRANCH   7   8
ENDBRANCH   6   7
ENDBRANCH   5   6
ENDBRANCH   4   5
ENDBRANCH   3   4
ENDBRANCH   2   3
ENDBRANCH   1   2
BRANCH   1  11
ATOM     11  C   UNL     1       9.655  31.742  21.256  1.00  0.00    -0.031 C 
ATOM     12  C   UNL     1       9.341  31.828  19.954  1.00  0.00    -0.027 C 
BRANCH  12  13
ATOM     13  C   UNL     1      10.324  31.600  18.844  1.00  0.00     0.054 C 
BRANCH  13  14
ATOM     14  C   UNL     1       9.797  32.101  17.530  1.00  0.00    -0.027 C 
ATOM     15  C   UNL     1       8.922  31.419  16.774  1.00  0.00    -0.031 C 
BRANCH  15  16
ATOM     16  C   UNL     1       8.315  30.073  17.067  1.00  0.00     0.027 C 
BRANCH  16  17
ATOM     17  C   UNL     1       6.788  29.969  16.977  1.00  0.00     0.004 C 
BRANCH  17  18
ATOM     18  C   UNL     1       6.157  29.896  18.370  1.00  0.00     0.000 C 
BRANCH  18  19
ATOM     19  C   UNL     1       5.244  31.083  18.684  1.00  0.00    -0.003 C 
ATOM     20  C   UNL     1       5.583  31.781  19.992  1.00  0.00     0.004 C 
ENDBRANCH  18  19
ENDBRANCH  17  18
ENDBRANCH  16  17
ENDBRANCH  15  16
ENDBRANCH  13  14
ENDBRANCH  12  13
ENDBRANCH   1  11
TORSDOF 14
ENDMDL
MODEL 8
REMARK VINA RESULT:    -5.832      4.104      6.690
REMARK INTER + INTRA:         -13.204
REMARK INTER:                 -11.250
REMARK INTRA:                  -1.954
REMARK UNBOUND:                -2.598
REMARK SMILES CCCCC/C=C\C/C=C\CCCCCCCC(=O)[O-]
REMARK SMILES IDX 11 1 12 2 13 3 14 4 15 5 16 6 17 7 18 8 19 9 20 10 10 11
REMARK SMILES IDX 9 12 8 13 7 14 6 15 5 16 4 17 3 18 2 19 1 20
REMARK H PARENT
REMARK INDEX MAP 8 1 6 2 4 3 3 4 5 5 7 6 9 7 18 8 2 9 1 10 12 11 15 12 16 13
REMARK INDEX MAP 19 14 17 15 13 16 10 17 11 18 14 19 20 20
ROOT
ATOM      1  C   UNL     1       5.355  31.795  20.259  1.00  0.00     0.027 C 
ENDROOT
BRANCH   1   2
ATOM      2  C   UNL     1       6.720  32.176  20.844  1.00  0.00     0.004 C 
BRANCH   2   3
ATOM      3  C   UNL     1       6.621  32.958  22.158  1.00  0.00     0.000 C 
BRANCH   3   4
ATOM      4  C   UNL     1       7.810  33.894  22.398  1.00  0.00     0.000 C 
BRANCH   4   5
ATOM      5  C   UNL     1       8.803  33.359  23.434  1.00  0.00     0.000 C 
BRANCH   5   6
ATOM      6  C   UNL     1      10.143  32.999  22.781  1.00  0.00     0.006 C 
BRANCH   6   7
ATOM      7  C   UNL     1      10.846  31.845  23.493  1.00  0.00     0.053 C 
BRANCH   7   8
ATOM      8  C   UNL     1      12.295  32.134  23.803  1.00  0.00     0.041 C 
ATOM      9  O   UNL     1      13.258  31.783  23.139  1.00  0.00    -0.550 OA
ATOM     10  O   UNL     1      12.391  32.882  24.932  1.00  0.00    -0.550 OA
ENDBRANCH   7   8
ENDBRANCH   6   7
ENDBRANCH   5   6
ENDBRANCH   4   5
ENDBRANCH   3   4
ENDBRANCH   2   3
ENDBRANCH   1   2
BRANCH   1  11
ATOM     11  C   UNL     1       5.168  32.264  18.845  1.00  0.00    -0.031 C 
ATOM     12  C   UNL     1       5.288  31.466  17.773  1.00  0.00    -0.027 C 
BRANCH  12  13
ATOM     13  C   UNL     1       5.624  30.006  17.855  1.00  0.00     0.054 C 
BRANCH  13  14
ATOM     14  C   UNL     1       6.417  29.555  16.661  1.00  0.00    -0.027 C 
ATOM     15  C   UNL     1       7.747  29.703  16.556  1.00  0.00    -0.031 C 
BRANCH  15  16
ATOM     16  C   UNL     1       8.679  30.324  17.561  1.00  0.00     0.027 C 
BRANCH  16  17
ATOM     17  C   UNL     1       9.254  31.703  17.212  1.00  0.00     0.004 C 
BRANCH  17  18
ATOM     18  C   UNL     1       9.563  32.509  18.476  1.00  0.00     0.000 C 
BRANCH  18  19
ATOM     19  C   UNL     1      10.085  31.649  19.630  1.00  0.00    -0.003 C 
ATOM     20  C   UNL     1      11.602  31.554  19.680  1.00  0.00     0.004 C 
ENDBRANCH  18  19
ENDBRANCH  17  18
ENDBRANCH  16  17
ENDBRANCH  15  16
ENDBRANCH  13  14
ENDBRANCH  12  13
ENDBRANCH   1  11
TORSDOF 14
ENDMDL
MODEL 9
REMARK VINA RESULT:    -5.832      5.013      7.892
REMARK INTER + INTRA:         -13.203
REMARK INTER:                 -11.461
REMARK INTRA:                  -1.741
REMARK UNBOUND:                -2.598
REMARK SMILES CCCCC/C=C\C/C=C\CCCCCCCC(=O)[O-]
REMARK SMILES IDX 11 1 12 2 13 3 14 4 15 5 16 6 17 7 18 8 19 9 20 10 10 11
REMARK SMILES IDX 9 12 8 13 7 14 6 15 5 16 4 17 3 18 2 19 1 20
REMARK H PARENT
REMARK INDEX MAP 8 1 6 2 4 3 3 4 5 5 7 6 9 7 18 8 2 9 1 10 12 11 15 12 16 13
REMARK INDEX MAP 19 14 17 15 13 16 10 17 11 18 14 19 20 20
ROOT
ATOM      1  C   UNL     1       7.858  31.553  20.216  1.00  0.00     0.027 C 
ENDROOT
BRANCH   1   2
ATOM      2  C   UNL     1       8.764  32.438  21.079  1.00  0.00     0.004 C 
BRANCH   2   3
ATOM      3  C   UNL     1      10.029  31.721  21.564  1.00  0.00     0.000 C 
BRANCH   3   4
ATOM      4  C   UNL     1      10.481  32.165  22.959  1.00  0.00     0.000 C 
BRANCH   4   5
ATOM      5  C   UNL     1      12.002  32.164  23.133  1.00  0.00     0.000 C 
BRANCH   5   6
ATOM      6  C   UNL     1      12.389  32.154  24.617  1.00  0.00     0.006 C 
BRANCH   6   7
ATOM      7  C   UNL     1      11.729  33.289  25.399  1.00  0.00     0.053 C 
BRANCH   7   8
ATOM      8  C   UNL     1      12.341  33.504  26.762  1.00  0.00     0.041 C 
ATOM      9  O   UNL     1      12.482  32.656  27.630  1.00  0.00    -0.550 OA
ATOM     10  O   UNL     1      12.753  34.791  26.891  1.00  0.00    -0.550 OA
ENDBRANCH   7   8
ENDBRANCH   6   7
ENDBRANCH   5   6
ENDBRANCH   4   5
ENDBRANCH   3   4
ENDBRANCH   2   3
ENDBRANCH   1   2
BRANCH   1  11
ATOM     11  C   UNL     1       6.549  32.206  19.874  1.00  0.00    -0.031 C 
ATOM     12  C   UNL     1       5.536  31.570  19.266  1.00  0.00    -0.027 C 
BRANCH  12  13
ATOM     13  C   UNL     1       5.585  30.128  18.855  1.00  0.00     0.054 C 
BRANCH  13  14
ATOM     14  C   UNL     1       5.578  29.981  17.360  1.00  0.00    -0.027 C 
ATOM     15  C   UNL     1       6.652  29.607  16.647  1.00  0.00    -0.031 C 
BRANCH  15  16
ATOM     16  C   UNL     1       8.024  29.274  17.169  1.00  0.00     0.027 C 
BRANCH  16  17
ATOM     17  C   UNL     1       9.017  30.436  17.291  1.00  0.00     0.004 C 
BRANCH  17  18
ATOM     18  C   UNL     1       8.615  31.604  16.385  1.00  0.00     0.000 C 
BRANCH  18  19
ATOM     19  C   UNL     1       9.058  32.967  16.921  1.00  0.00    -0.003 C 
ATOM     20  C   UNL     1      10.422  32.942  17.592  1.00  0.00     0.004 C 
ENDBRANCH  18  19
ENDBRANCH  17  18
ENDBRANCH  16  17
ENDBRANCH  15  16
ENDBRANCH  13  14
ENDBRANCH  12  13
ENDBRANCH   1  11
TORSDOF 14
ENDMDL
MODEL 10
REMARK VINA RESULT:    -5.816      5.908      8.140
REMARK INTER + INTRA:         -13.174
REMARK INTER:                 -11.843
REMARK INTRA:                  -1.331
REMARK UNBOUND:                -2.598
REMARK SMILES CCCCC/C=C\C/C=C\CCCCCCCC(=O)[O-]
REMARK SMILES IDX 11 1 12 2 13 3 14 4 15 5 16 6 17 7 18 8 19 9 20 10 10 11
REMARK SMILES IDX 9 12 8 13 7 14 6 15 5 16 4 17 3 18 2 19 1 20
REMARK H PARENT
REMARK INDEX MAP 8 1 6 2 4 3 3 4 5 5 7 6 9 7 18 8 2 9 1 10 12 11 15 12 16 13
REMARK INDEX MAP 19 14 17 15 13 16 10 17 11 18 14 19 20 20
ROOT
ATOM      1  C   UNL     1      11.877  32.254  23.991  1.00  0.00     0.027 C 
ENDROOT
BRANCH   1   2
ATOM      2  C   UNL     1      11.576  31.852  22.542  1.00  0.00     0.004 C 
BRANCH   2   3
ATOM      3  C   UNL     1      10.192  32.303  22.063  1.00  0.00     0.000 C 
BRANCH   3   4
ATOM      4  C   UNL     1       9.713  31.561  20.810  1.00  0.00     0.000 C 
BRANCH   4   5
ATOM      5  C   UNL     1      10.548  31.873  19.565  1.00  0.00     0.000 C 
BRANCH   5   6
ATOM      6  C   UNL     1       9.918  31.259  18.309  1.00  0.00     0.006 C 
BRANCH   6   7
ATOM      7  C   UNL     1       8.404  31.092  18.438  1.00  0.00     0.053 C 
BRANCH   7   8
ATOM      8  C   UNL     1       7.905  29.772  17.900  1.00  0.00     0.041 C 
ATOM      9  O   UNL     1       8.215  29.267  16.833  1.00  0.00    -0.550 OA
ATOM     10  O   UNL     1       7.066  29.191  18.795  1.00  0.00    -0.550 OA
ENDBRANCH   7   8
ENDBRANCH   6   7
ENDBRANCH   5   6
ENDBRANCH   4   5
ENDBRANCH   3   4
ENDBRANCH   2   3
ENDBRANCH   1   2
BRANCH   1  11
ATOM     11  C   UNL     1      10.652  32.679  24.751  1.00  0.00    -0.031 C 
ATOM     12  C   UNL     1      10.674  33.090  26.028  1.00  0.00    -0.027 C 
BRANCH  12  13
ATOM     13  C   UNL     1      11.923  33.178  26.854  1.00  0.00     0.054 C 
BRANCH  13  14
ATOM     14  C   UNL     1      12.568  34.529  26.736  1.00  0.00    -0.027 C 
ATOM     15  C   UNL     1      12.295  35.555  27.558  1.00  0.00    -0.031 C 
BRANCH  15  16
ATOM     16  C   UNL     1      11.330  35.567  28.714  1.00  0.00     0.027 C 
BRANCH  16  17
ATOM     17  C   UNL     1      11.936  35.680  30.118  1.00  0.00     0.004 C 
BRANCH  17  18
ATOM     18  C   UNL     1      12.481  34.330  30.594  1.00  0.00     0.000 C 
BRANCH  18  19
ATOM     19  C   UNL     1      14.006  34.231  30.519  1.00  0.00    -0.003 C 
ATOM     20  C   UNL     1      14.501  32.945  29.874  1.00  0.00     0.004 C 
ENDBRANCH  18  19
ENDBRANCH  17  18
ENDBRANCH  16  17
ENDBRANCH  15  16
ENDBRANCH  13  14
ENDBRANCH  12  13
ENDBRANCH   1  11
TORSDOF 14
ENDMDL
MODEL 11
REMARK VINA RESULT:    -5.749      5.416      8.640
REMARK INTER + INTRA:         -13.053
REMARK INTER:                 -11.762
REMARK INTRA:                  -1.291
REMARK UNBOUND:                -2.598
REMARK SMILES CCCCC/C=C\C/C=C\CCCCCCCC(=O)[O-]
REMARK SMILES IDX 11 1 12 2 13 3 14 4 15 5 16 6 17 7 18 8 19 9 20 10 10 11
REMARK SMILES IDX 9 12 8 13 7 14 6 15 5 16 4 17 3 18 2 19 1 20
REMARK H PARENT
REMARK INDEX MAP 8 1 6 2 4 3 3 4 5 5 7 6 9 7 18 8 2 9 1 10 12 11 15 12 16 13
REMARK INDEX MAP 19 14 17 15 13 16 10 17 11 18 14 19 20 20
ROOT
ATOM      1  C   UNL     1       9.496  32.785  22.320  1.00  0.00     0.027 C 
ENDROOT
BRANCH   1   2
ATOM      2  C   UNL     1      10.147  32.558  23.689  1.00  0.00     0.004 C 
BRANCH   2   3
ATOM      3  C   UNL     1      11.643  32.237  23.603  1.00  0.00     0.000 C 
BRANCH   3   4
ATOM      4  C   UNL     1      12.417  32.606  24.873  1.00  0.00     0.000 C 
BRANCH   4   5
ATOM      5  C   UNL     1      11.512  33.017  26.037  1.00  0.00     0.000 C 
BRANCH   5   6
ATOM      6  C   UNL     1      11.845  34.433  26.523  1.00  0.00     0.006 C 
BRANCH   6   7
ATOM      7  C   UNL     1      10.599  35.219  26.927  1.00  0.00     0.053 C 
BRANCH   7   8
ATOM      8  C   UNL     1      10.292  35.127  28.402  1.00  0.00     0.041 C 
ATOM      9  O   UNL     1      10.503  34.164  29.123  1.00  0.00    -0.550 OA
ATOM     10  O   UNL     1       9.763  36.297  28.843  1.00  0.00    -0.550 OA
ENDBRANCH   7   8
ENDBRANCH   6   7
ENDBRANCH   5   6
ENDBRANCH   4   5
ENDBRANCH   3   4
ENDBRANCH   2   3
ENDBRANCH   1   2
BRANCH   1  11
ATOM     11  C   UNL     1       9.855  31.730  21.313  1.00  0.00    -0.031 C 
ATOM     12  C   UNL     1       9.172  31.521  20.177  1.00  0.00    -0.027 C 
BRANCH  12  13
ATOM     13  C   UNL     1       7.968  32.318  19.771  1.00  0.00     0.054 C 
BRANCH  13  14
ATOM     14  C   UNL     1       6.732  31.851  20.485  1.00  0.00    -0.027 C 
ATOM     15  C   UNL     1       5.515  31.821  19.918  1.00  0.00    -0.031 C 
BRANCH  15  16
ATOM     16  C   UNL     1       5.150  32.231  18.517  1.00  0.00     0.027 C 
BRANCH  16  17
ATOM     17  C   UNL     1       4.807  31.104  17.534  1.00  0.00     0.004 C 
BRANCH  17  18
ATOM     18  C   UNL     1       5.779  29.930  17.680  1.00  0.00     0.000 C 
BRANCH  18  19
ATOM     19  C   UNL     1       7.009  30.045  16.777  1.00  0.00    -0.003 C 
ATOM     20  C   UNL     1       8.191  29.215  17.252  1.00  0.00     0.004 C 
ENDBRANCH  18  19
ENDBRANCH  17  18
ENDBRANCH  16  17
ENDBRANCH  15  16
ENDBRANCH  13  14
ENDBRANCH  12  13
ENDBRANCH   1  11
TORSDOF 14
ENDMDL
MODEL 12
REMARK VINA RESULT:    -5.746      2.374      5.567
REMARK INTER + INTRA:         -13.046
REMARK INTER:                 -11.116
REMARK INTRA:                  -1.931
REMARK UNBOUND:                -2.598
REMARK SMILES CCCCC/C=C\C/C=C\CCCCCCCC(=O)[O-]
REMARK SMILES IDX 11 1 12 2 13 3 14 4 15 5 16 6 17 7 18 8 19 9 20 10 10 11
REMARK SMILES IDX 9 12 8 13 7 14 6 15 5 16 4 17 3 18 2 19 1 20
REMARK H PARENT
REMARK INDEX MAP 8 1 6 2 4 3 3 4 5 5 7 6 9 7 18 8 2 9 1 10 12 11 15 12 16 13
REMARK INDEX MAP 19 14 17 15 13 16 10 17 11 18 14 19 20 20
ROOT
ATOM      1  C   UNL     1      10.308  31.409  22.315  1.00  0.00     0.027 C 
ENDROOT
BRANCH   1   2
ATOM      2  C   UNL     1      11.529  31.545  21.398  1.00  0.00     0.004 C 
BRANCH   2   3
ATOM      3  C   UNL     1      11.163  31.651  19.913  1.00  0.00     0.000 C 
BRANCH   3   4
ATOM      4  C   UNL     1       9.659  31.529  19.649  1.00  0.00     0.000 C 
BRANCH   4   5
ATOM      5  C   UNL     1       9.178  32.382  18.472  1.00  0.00     0.000 C 
BRANCH   5   6
ATOM      6  C   UNL     1       9.522  31.718  17.133  1.00  0.00     0.006 C 
BRANCH   6   7
ATOM      7  C   UNL     1       8.286  31.174  16.417  1.00  0.00     0.053 C 
BRANCH   7   8
ATOM      8  C   UNL     1       7.977  29.740  16.774  1.00  0.00     0.041 C 
ATOM      9  O   UNL     1       8.678  28.998  17.444  1.00  0.00    -0.550 OA
ATOM     10  O   UNL     1       6.772  29.381  16.263  1.00  0.00    -0.550 OA
ENDBRANCH   7   8
ENDBRANCH   6   7
ENDBRANCH   5   6
ENDBRANCH   4   5
ENDBRANCH   3   4
ENDBRANCH   2   3
ENDBRANCH   1   2
BRANCH   1  11
ATOM     11  C   UNL     1      10.127  32.584  23.233  1.00  0.00    -0.031 C 
ATOM     12  C   UNL     1       9.089  33.432  23.163  1.00  0.00    -0.027 C 
BRANCH  12  13
ATOM     13  C   UNL     1       7.981  33.310  22.159  1.00  0.00     0.054 C 
BRANCH  13  14
ATOM     14  C   UNL     1       6.640  33.574  22.784  1.00  0.00    -0.027 C 
ATOM     15  C   UNL     1       5.524  32.905  22.454  1.00  0.00    -0.031 C 
BRANCH  15  16
ATOM     16  C   UNL     1       5.386  31.806  21.435  1.00  0.00     0.027 C 
BRANCH  16  17
ATOM     17  C   UNL     1       5.846  32.124  20.008  1.00  0.00     0.004 C 
BRANCH  17  18
ATOM     18  C   UNL     1       5.307  31.093  19.012  1.00  0.00     0.000 C 
BRANCH  18  19
ATOM     19  C   UNL     1       4.581  31.722  17.821  1.00  0.00    -0.003 C 
ATOM     20  C   UNL     1       5.245  32.989  17.304  1.00  0.00     0.004 C 
ENDBRANCH  18  19
ENDBRANCH  17  18
ENDBRANCH  16  17
ENDBRANCH  15  16
ENDBRANCH  13  14
ENDBRANCH  12  13
ENDBRANCH   1  11
TORSDOF 14
ENDMDL
MODEL 13
REMARK VINA RESULT:    -5.721      5.835      7.979
REMARK INTER + INTRA:         -13.001
REMARK INTER:                 -11.786
REMARK INTRA:                  -1.215
REMARK UNBOUND:                -2.598
REMARK SMILES CCCCC/C=C\C/C=C\CCCCCCCC(=O)[O-]
REMARK SMILES IDX 11 1 12 2 13 3 14 4 15 5 16 6 17 7 18 8 19 9 20 10 10 11
REMARK SMILES IDX 9 12 8 13 7 14 6 15 5 16 4 17 3 18 2 19 1 20
REMARK H PARENT
REMARK INDEX MAP 8 1 6 2 4 3 3 4 5 5 7 6 9 7 18 8 2 9 1 10 12 11 15 12 16 13
REMARK INDEX MAP 19 14 17 15 13 16 10 17 11 18 14 19 20 20
ROOT
ATOM      1  C   UNL     1      10.995  32.454  24.138  1.00  0.00     0.027 C 
ENDROOT
BRANCH   1   2
ATOM      2  C   UNL     1      10.302  32.500  22.772  1.00  0.00     0.004 C 
BRANCH   2   3
ATOM      3  C   UNL     1      10.937  31.563  21.738  1.00  0.00     0.000 C 
BRANCH   3   4
ATOM      4  C   UNL     1      10.195  31.548  20.398  1.00  0.00     0.000 C 
BRANCH   4   5
ATOM      5  C   UNL     1       8.695  31.827  20.531  1.00  0.00     0.000 C 
BRANCH   5   6
ATOM      6  C   UNL     1       7.932  31.350  19.289  1.00  0.00     0.006 C 
BRANCH   6   7
ATOM      7  C   UNL     1       8.866  30.943  18.150  1.00  0.00     0.053 C 
BRANCH   7   8
ATOM      8  C   UNL     1       8.342  29.783  17.339  1.00  0.00     0.041 C 
ATOM      9  O   UNL     1       7.967  28.707  17.780  1.00  0.00    -0.550 OA
ATOM     10  O   UNL     1       8.314  30.109  16.022  1.00  0.00    -0.550 OA
ENDBRANCH   7   8
ENDBRANCH   6   7
ENDBRANCH   5   6
ENDBRANCH   4   5
ENDBRANCH   3   4
ENDBRANCH   2   3
ENDBRANCH   1   2
BRANCH   1  11
ATOM     11  C   UNL     1      10.089  32.839  25.273  1.00  0.00    -0.031 C 
ATOM     12  C   UNL     1      10.529  33.254  26.470  1.00  0.00    -0.027 C 
BRANCH  12  13
ATOM     13  C   UNL     1      11.981  33.385  26.824  1.00  0.00     0.054 C 
BRANCH  13  14
ATOM     14  C   UNL     1      12.424  34.820  26.809  1.00  0.00    -0.027 C 
ATOM     15  C   UNL     1      13.043  35.415  27.841  1.00  0.00    -0.031 C 
BRANCH  15  16
ATOM     16  C   UNL     1      13.404  34.802  29.167  1.00  0.00     0.027 C 
BRANCH  16  17
ATOM     17  C   UNL     1      12.755  35.416  30.413  1.00  0.00     0.004 C 
BRANCH  17  18
ATOM     18  C   UNL     1      11.560  34.581  30.881  1.00  0.00     0.000 C 
BRANCH  18  19
ATOM     19  C   UNL     1      10.244  35.361  30.899  1.00  0.00    -0.003 C 
ATOM     20  C   UNL     1       9.840  35.901  29.536  1.00  0.00     0.004 C 
ENDBRANCH  18  19
ENDBRANCH  17  18
ENDBRANCH  16  17
ENDBRANCH  15  16
ENDBRANCH  13  14
ENDBRANCH  12  13
ENDBRANCH   1  11
TORSDOF 14
ENDMDL
MODEL 14
REMARK VINA RESULT:    -5.682      5.280      7.934
REMARK INTER + INTRA:         -12.930
REMARK INTER:                 -11.007
REMARK INTRA:                  -1.923
REMARK UNBOUND:                -2.598
REMARK SMILES CCCCC/C=C\C/C=C\CCCCCCCC(=O)[O-]
REMARK SMILES IDX 11 1 12 2 13 3 14 4 15 5 16 6 17 7 18 8 19 9 20 10 10 11
REMARK SMILES IDX 9 12 8 13 7 14 6 15 5 16 4 17 3 18 2 19 1 20
REMARK H PARENT
REMARK INDEX MAP 8 1 6 2 4 3 3 4 5 5 7 6 9 7 18 8 2 9 1 10 12 11 15 12 16 13
REMARK INDEX MAP 19 14 17 15 13 16 10 17 11 18 14 19 20 20
ROOT
ATOM      1  C   UNL     1       9.390  32.241  20.426  1.00  0.00     0.027 C 
ENDROOT
BRANCH   1   2
ATOM      2  C   UNL     1       9.718  32.172  21.921  1.00  0.00     0.004 C 
BRANCH   2   3
ATOM      3  C   UNL     1      11.187  31.840  22.205  1.00  0.00     0.000 C 
BRANCH   3   4
ATOM      4  C   UNL     1      11.628  32.208  23.626  1.00  0.00     0.000 C 
BRANCH   4   5
ATOM      5  C   UNL     1      10.477  32.218  24.635  1.00  0.00     0.000 C 
BRANCH   5   6
ATOM      6  C   UNL     1      10.654  33.341  25.664  1.00  0.00     0.006 C 
BRANCH   6   7
ATOM      7  C   UNL     1      12.058  33.363  26.267  1.00  0.00     0.053 C 
BRANCH   7   8
ATOM      8  C   UNL     1      12.083  32.978  27.727  1.00  0.00     0.041 C 
ATOM      9  O   UNL     1      13.077  32.889  28.431  1.00  0.00    -0.550 OA
ATOM     10  O   UNL     1      10.819  32.766  28.176  1.00  0.00    -0.550 OA
ENDBRANCH   7   8
ENDBRANCH   6   7
ENDBRANCH   5   6
ENDBRANCH   4   5
ENDBRANCH   3   4
ENDBRANCH   2   3
ENDBRANCH   1   2
BRANCH   1  11
ATOM     11  C   UNL     1      10.281  31.372  19.585  1.00  0.00    -0.031 C 
ATOM     12  C   UNL     1      10.765  31.737  18.388  1.00  0.00    -0.027 C 
BRANCH  12  13
ATOM     13  C   UNL     1      10.477  33.060  17.742  1.00  0.00     0.054 C 
BRANCH  13  14
ATOM     14  C   UNL     1       9.711  32.893  16.461  1.00  0.00    -0.027 C 
ATOM     15  C   UNL     1       8.372  32.958  16.384  1.00  0.00    -0.031 C 
BRANCH  15  16
ATOM     16  C   UNL     1       7.403  33.200  17.510  1.00  0.00     0.027 C 
BRANCH  16  17
ATOM     17  C   UNL     1       6.159  32.304  17.555  1.00  0.00     0.004 C 
BRANCH  17  18
ATOM     18  C   UNL     1       6.298  31.220  18.627  1.00  0.00     0.000 C 
BRANCH  18  19
ATOM     19  C   UNL     1       7.124  30.015  18.168  1.00  0.00    -0.003 C 
ATOM     20  C   UNL     1       6.826  29.584  16.740  1.00  0.00     0.004 C 
ENDBRANCH  18  19
ENDBRANCH  17  18
ENDBRANCH  16  17
ENDBRANCH  15  16
ENDBRANCH  13  14
ENDBRANCH  12  13
ENDBRANCH   1  11
TORSDOF 14
ENDMDL
MODEL 15
REMARK VINA RESULT:    -5.659      3.639      5.210
REMARK INTER + INTRA:         -12.889
REMARK INTER:                 -11.371
REMARK INTRA:                  -1.518
REMARK UNBOUND:                -2.598
REMARK SMILES CCCCC/C=C\C/C=C\CCCCCCCC(=O)[O-]
REMARK SMILES IDX 11 1 12 2 13 3 14 4 15 5 16 6 17 7 18 8 19 9 20 10 10 11
REMARK SMILES IDX 9 12 8 13 7 14 6 15 5 16 4 17 3 18 2 19 1 20
REMARK H PARENT
REMARK INDEX MAP 8 1 6 2 4 3 3 4 5 5 7 6 9 7 18 8 2 9 1 10 12 11 15 12 16 13
REMARK INDEX MAP 19 14 17 15 13 16 10 17 11 18 14 19 20 20
ROOT
ATOM      1  C   UNL     1      10.787  31.995  19.153  1.00  0.00     0.027 C 
ENDROOT
BRANCH   1   2
ATOM      2  C   UNL     1      10.486  32.543  17.753  1.00  0.00     0.004 C 
BRANCH   2   3
ATOM      3  C   UNL     1       9.151  33.291  17.669  1.00  0.00     0.000 C 
BRANCH   3   4
ATOM      4  C   UNL     1       8.202  32.719  16.611  1.00  0.00     0.000 C 
BRANCH   4   5
ATOM      5  C   UNL     1       8.635  31.349  16.083  1.00  0.00     0.000 C 
BRANCH   5   6
ATOM      6  C   UNL     1       7.673  30.249  16.545  1.00  0.00     0.006 C 
BRANCH   6   7
ATOM      7  C   UNL     1       6.566  30.785  17.453  1.00  0.00     0.053 C 
BRANCH   7   8
ATOM      8  C   UNL     1       6.323  29.919  18.665  1.00  0.00     0.041 C 
ATOM      9  O   UNL     1       7.064  29.044  19.086  1.00  0.00    -0.550 OA
ATOM     10  O   UNL     1       5.156  30.270  19.263  1.00  0.00    -0.550 OA
ENDBRANCH   7   8
ENDBRANCH   6   7
ENDBRANCH   5   6
ENDBRANCH   4   5
ENDBRANCH   3   4
ENDBRANCH   2   3
ENDBRANCH   1   2
BRANCH   1  11
ATOM     11  C   UNL     1       9.579  31.415  19.831  1.00  0.00    -0.031 C 
ATOM     12  C   UNL     1       9.220  31.706  21.091  1.00  0.00    -0.027 C 
BRANCH  12  13
ATOM     13  C   UNL     1       9.980  32.649  21.977  1.00  0.00     0.054 C 
BRANCH  13  14
ATOM     14  C   UNL     1      10.958  31.917  22.850  1.00  0.00    -0.027 C 
ATOM     15  C   UNL     1      11.096  32.149  24.165  1.00  0.00    -0.031 C 
BRANCH  15  16
ATOM     16  C   UNL     1      10.338  33.145  25.001  1.00  0.00     0.027 C 
BRANCH  16  17
ATOM     17  C   UNL     1      10.480  33.022  26.523  1.00  0.00     0.004 C 
BRANCH  17  18
ATOM     18  C   UNL     1      11.954  33.029  26.941  1.00  0.00     0.000 C 
BRANCH  18  19
ATOM     19  C   UNL     1      12.289  34.118  27.963  1.00  0.00    -0.003 C 
ATOM     20  C   UNL     1      12.726  35.430  27.330  1.00  0.00     0.004 C 
ENDBRANCH  18  19
ENDBRANCH  17  18
ENDBRANCH  16  17
ENDBRANCH  15  16
ENDBRANCH  13  14
ENDBRANCH  12  13
ENDBRANCH   1  11
TORSDOF 14
ENDMDL
MODEL 16
REMARK VINA RESULT:    -5.644      7.301     10.426
REMARK INTER + INTRA:         -12.862
REMARK INTER:                 -11.941
REMARK INTRA:                  -0.921
REMARK UNBOUND:                -2.598
REMARK SMILES CCCCC/C=C\C/C=C\CCCCCCCC(=O)[O-]
REMARK SMILES IDX 11 1 12 2 13 3 14 4 15 5 16 6 17 7 18 8 19 9 20 10 10 11
REMARK SMILES IDX 9 12 8 13 7 14 6 15 5 16 4 17 3 18 2 19 1 20
REMARK H PARENT
REMARK INDEX MAP 8 1 6 2 4 3 3 4 5 5 7 6 9 7 18 8 2 9 1 10 12 11 15 12 16 13
REMARK INDEX MAP 19 14 17 15 13 16 10 17 11 18 14 19 20 20
ROOT
ATOM      1  C   UNL     1      10.251  32.729  24.640  1.00  0.00     0.027 C 
ENDROOT
BRANCH   1   2
ATOM      2  C   UNL     1      10.504  33.137  26.095  1.00  0.00     0.004 C 
BRANCH   2   3
ATOM      3  C   UNL     1      11.992  33.266  26.439  1.00  0.00     0.000 C 
BRANCH   3   4
ATOM      4  C   UNL     1      12.387  34.673  26.903  1.00  0.00     0.000 C 
BRANCH   4   5
ATOM      5  C   UNL     1      11.782  35.058  28.255  1.00  0.00     0.000 C 
BRANCH   5   6
ATOM      6  C   UNL     1      11.861  33.891  29.248  1.00  0.00     0.006 C 
BRANCH   6   7
ATOM      7  C   UNL     1      12.692  34.232  30.484  1.00  0.00     0.053 C 
BRANCH   7   8
ATOM      8  C   UNL     1      14.180  34.136  30.243  1.00  0.00     0.041 C 
ATOM      9  O   UNL     1      14.980  35.056  30.307  1.00  0.00    -0.550 OA
ATOM     10  O   UNL     1      14.526  32.853  29.966  1.00  0.00    -0.550 OA
ENDBRANCH   7   8
ENDBRANCH   6   7
ENDBRANCH   5   6
ENDBRANCH   4   5
ENDBRANCH   3   4
ENDBRANCH   2   3
ENDBRANCH   1   2
BRANCH   1  11
ATOM     11  C   UNL     1      11.482  32.214  23.949  1.00  0.00    -0.031 C 
ATOM     12  C   UNL     1      11.501  31.793  22.676  1.00  0.00    -0.027 C 
BRANCH  12  13
ATOM     13  C   UNL     1      10.295  31.785  21.783  1.00  0.00     0.054 C 
BRANCH  13  14
ATOM     14  C   UNL     1      10.682  31.715  20.334  1.00  0.00    -0.027 C 
ATOM     15  C   UNL     1       9.795  31.754  19.327  1.00  0.00    -0.031 C 
BRANCH  15  16
ATOM     16  C   UNL     1       8.298  31.867  19.432  1.00  0.00     0.027 C 
BRANCH  16  17
ATOM     17  C   UNL     1       7.483  30.623  19.058  1.00  0.00     0.004 C 
BRANCH  17  18
ATOM     18  C   UNL     1       8.006  29.989  17.766  1.00  0.00     0.000 C 
BRANCH  18  19
ATOM     19  C   UNL     1       6.893  29.579  16.798  1.00  0.00    -0.003 C 
ATOM     20  C   UNL     1       5.530  30.146  17.165  1.00  0.00     0.004 C 
ENDBRANCH  18  19
ENDBRANCH  17  18
ENDBRANCH  16  17
ENDBRANCH  15  16
ENDBRANCH  13  14
ENDBRANCH  12  13
ENDBRANCH   1  11
TORSDOF 14
ENDMDL
MODEL 17
REMARK VINA RESULT:    -5.629      5.953      8.731
REMARK INTER + INTRA:         -12.833
REMARK INTER:                 -11.458
REMARK INTRA:                  -1.376
REMARK UNBOUND:                -2.598
REMARK SMILES CCCCC/C=C\C/C=C\CCCCCCCC(=O)[O-]
REMARK SMILES IDX 11 1 12 2 13 3 14 4 15 5 16 6 17 7 18 8 19 9 20 10 10 11
REMARK SMILES IDX 9 12 8 13 7 14 6 15 5 16 4 17 3 18 2 19 1 20
REMARK H PARENT
REMARK INDEX MAP 8 1 6 2 4 3 3 4 5 5 7 6 9 7 18 8 2 9 1 10 12 11 15 12 16 13
REMARK INDEX MAP 19 14 17 15 13 16 10 17 11 18 14 19 20 20
ROOT
ATOM      1  C   UNL     1      11.370  31.151  21.682  1.00  0.00     0.027 C 
ENDROOT
BRANCH   1   2
ATOM      2  C   UNL     1      11.990  31.875  22.883  1.00  0.00     0.004 C 
BRANCH   2   3
ATOM      3  C   UNL     1      10.971  32.222  23.973  1.00  0.00     0.000 C 
BRANCH   3   4
ATOM      4  C   UNL     1      11.598  32.910  25.191  1.00  0.00     0.000 C 
BRANCH   4   5
ATOM      5  C   UNL     1      10.571  33.328  26.247  1.00  0.00     0.000 C 
BRANCH   5   6
ATOM      6  C   UNL     1      11.012  34.603  26.974  1.00  0.00     0.006 C 
BRANCH   6   7
ATOM      7  C   UNL     1      12.520  34.834  26.884  1.00  0.00     0.053 C 
BRANCH   7   8
ATOM      8  C   UNL     1      13.085  35.548  28.088  1.00  0.00     0.041 C 
ATOM      9  O   UNL     1      12.933  35.221  29.255  1.00  0.00    -0.550 OA
ATOM     10  O   UNL     1      13.827  36.614  27.694  1.00  0.00    -0.550 OA
ENDBRANCH   7   8
ENDBRANCH   6   7
ENDBRANCH   5   6
ENDBRANCH   4   5
ENDBRANCH   3   4
ENDBRANCH   2   3
ENDBRANCH   1   2
BRANCH   1  11
ATOM     11  C   UNL     1      10.035  31.711  21.281  1.00  0.00    -0.031 C 
ATOM     12  C   UNL     1       9.637  31.848  20.007  1.00  0.00    -0.027 C 
BRANCH  12  13
ATOM     13  C   UNL     1      10.475  31.458  18.826  1.00  0.00     0.054 C 
BRANCH  13  14
ATOM     14  C   UNL     1      10.828  32.649  17.982  1.00  0.00    -0.027 C 
ATOM     15  C   UNL     1      10.107  33.047  16.922  1.00  0.00    -0.031 C 
BRANCH  15  16
ATOM     16  C   UNL     1       8.855  32.412  16.379  1.00  0.00     0.027 C 
BRANCH  16  17
ATOM     17  C   UNL     1       7.537  32.783  17.070  1.00  0.00     0.004 C 
BRANCH  17  18
ATOM     18  C   UNL     1       6.828  31.538  17.610  1.00  0.00     0.000 C 
BRANCH  18  19
ATOM     19  C   UNL     1       7.094  30.280  16.780  1.00  0.00    -0.003 C 
ATOM     20  C   UNL     1       7.843  29.197  17.541  1.00  0.00     0.004 C 
ENDBRANCH  18  19
ENDBRANCH  17  18
ENDBRANCH  16  17
ENDBRANCH  15  16
ENDBRANCH  13  14
ENDBRANCH  12  13
ENDBRANCH   1  11
TORSDOF 14
ENDMDL
MODEL 18
REMARK VINA RESULT:    -5.618      5.645      7.939
REMARK INTER + INTRA:         -12.815
REMARK INTER:                 -11.465
REMARK INTRA:                  -1.350
REMARK UNBOUND:                -2.598
REMARK SMILES CCCCC/C=C\C/C=C\CCCCCCCC(=O)[O-]
REMARK SMILES IDX 11 1 12 2 13 3 14 4 15 5 16 6 17 7 18 8 19 9 20 10 10 11
REMARK SMILES IDX 9 12 8 13 7 14 6 15 5 16 4 17 3 18 2 19 1 20
REMARK H PARENT
REMARK INDEX MAP 8 1 6 2 4 3 3 4 5 5 7 6 9 7 18 8 2 9 1 10 12 11 15 12 16 13
REMARK INDEX MAP 19 14 17 15 13 16 10 17 11 18 14 19 20 20
ROOT
ATOM      1  C   UNL     1      11.883  32.237  24.129  1.00  0.00     0.027 C 
ENDROOT
BRANCH   1   2
ATOM      2  C   UNL     1      11.572  31.908  22.664  1.00  0.00     0.004 C 
BRANCH   2   3
ATOM      3  C   UNL     1      10.131  32.242  22.261  1.00  0.00     0.000 C 
BRANCH   3   4
ATOM      4  C   UNL     1       9.796  31.839  20.821  1.00  0.00     0.000 C 
BRANCH   4   5
ATOM      5  C   UNL     1      11.034  31.647  19.941  1.00  0.00     0.000 C 
BRANCH   5   6
ATOM      6  C   UNL     1      10.656  31.617  18.455  1.00  0.00     0.006 C 
BRANCH   6   7
ATOM      7  C   UNL     1      10.673  33.007  17.821  1.00  0.00     0.053 C 
BRANCH   7   8
ATOM      8  C   UNL     1       9.424  33.314  17.030  1.00  0.00     0.041 C 
ATOM      9  O   UNL     1       9.307  33.249  15.816  1.00  0.00    -0.550 OA
ATOM     10  O   UNL     1       8.412  33.652  17.868  1.00  0.00    -0.550 OA
ENDBRANCH   7   8
ENDBRANCH   6   7
ENDBRANCH   5   6
ENDBRANCH   4   5
ENDBRANCH   3   4
ENDBRANCH   2   3
ENDBRANCH   1   2
BRANCH   1  11
ATOM     11  C   UNL     1      10.677  32.689  24.901  1.00  0.00    -0.031 C 
ATOM     12  C   UNL     1      10.738  33.237  26.124  1.00  0.00    -0.027 C 
BRANCH  12  13
ATOM     13  C   UNL     1      12.018  33.467  26.871  1.00  0.00     0.054 C 
BRANCH  13  14
ATOM     14  C   UNL     1      12.392  34.921  26.890  1.00  0.00    -0.027 C 
ATOM     15  C   UNL     1      13.054  35.503  27.902  1.00  0.00    -0.031 C 
BRANCH  15  16
ATOM     16  C   UNL     1      13.536  34.854  29.171  1.00  0.00     0.027 C 
BRANCH  16  17
ATOM     17  C   UNL     1      12.801  35.232  30.463  1.00  0.00     0.004 C 
BRANCH  17  18
ATOM     18  C   UNL     1      11.530  34.396  30.639  1.00  0.00     0.000 C 
BRANCH  18  19
ATOM     19  C   UNL     1      10.268  35.242  30.820  1.00  0.00    -0.003 C 
ATOM     20  C   UNL     1       9.797  35.912  29.539  1.00  0.00     0.004 C 
ENDBRANCH  18  19
ENDBRANCH  17  18
ENDBRANCH  16  17
ENDBRANCH  15  16
ENDBRANCH  13  14
ENDBRANCH  12  13
ENDBRANCH   1  11
TORSDOF 14
ENDMDL
MODEL 19
REMARK VINA RESULT:    -5.609      5.655      7.674
REMARK INTER + INTRA:         -12.798
REMARK INTER:                 -11.916
REMARK INTRA:                  -0.883
REMARK UNBOUND:                -2.598
REMARK SMILES CCCCC/C=C\C/C=C\CCCCCCCC(=O)[O-]
REMARK SMILES IDX 11 1 12 2 13 3 14 4 15 5 16 6 17 7 18 8 19 9 20 10 10 11
REMARK SMILES IDX 9 12 8 13 7 14 6 15 5 16 4 17 3 18 2 19 1 20
REMARK H PARENT
REMARK INDEX MAP 8 1 6 2 4 3 3 4 5 5 7 6 9 7 18 8 2 9 1 10 12 11 15 12 16 13
REMARK INDEX MAP 19 14 17 15 13 16 10 17 11 18 14 19 20 20
ROOT
ATOM      1  C   UNL     1      11.956  32.208  23.238  1.00  0.00     0.027 C 
ENDROOT
BRANCH   1   2
ATOM      2  C   UNL     1      11.942  31.466  21.897  1.00  0.00     0.004 C 
BRANCH   2   3
ATOM      3  C   UNL     1      10.572  31.478  21.211  1.00  0.00     0.000 C 
BRANCH   3   4
ATOM      4  C   UNL     1      10.647  31.779  19.711  1.00  0.00     0.000 C 
BRANCH   4   5
ATOM      5  C   UNL     1       9.324  31.542  18.978  1.00  0.00     0.000 C 
BRANCH   5   6
ATOM      6  C   UNL     1       8.141  31.554  19.953  1.00  0.00     0.006 C 
BRANCH   6   7
ATOM      7  C   UNL     1       6.808  31.806  19.251  1.00  0.00     0.053 C 
BRANCH   7   8
ATOM      8  C   UNL     1       6.058  30.536  18.928  1.00  0.00     0.041 C 
ATOM      9  O   UNL     1       6.356  29.723  18.067  1.00  0.00    -0.550 OA
ATOM     10  O   UNL     1       4.997  30.396  19.763  1.00  0.00    -0.550 OA
ENDBRANCH   7   8
ENDBRANCH   6   7
ENDBRANCH   5   6
ENDBRANCH   4   5
ENDBRANCH   3   4
ENDBRANCH   2   3
ENDBRANCH   1   2
BRANCH   1  11
ATOM     11  C   UNL     1      10.622  32.199  23.930  1.00  0.00    -0.031 C 
ATOM     12  C   UNL     1      10.396  32.780  25.119  1.00  0.00    -0.027 C 
BRANCH  12  13
ATOM     13  C   UNL     1      11.446  33.510  25.902  1.00  0.00     0.054 C 
BRANCH  13  14
ATOM     14  C   UNL     1      10.885  34.733  26.570  1.00  0.00    -0.027 C 
ATOM     15  C   UNL     1      11.610  35.551  27.349  1.00  0.00    -0.031 C 
BRANCH  15  16
ATOM     16  C   UNL     1      13.067  35.420  27.704  1.00  0.00     0.027 C 
BRANCH  16  17
ATOM     17  C   UNL     1      13.577  36.289  28.860  1.00  0.00     0.004 C 
BRANCH  17  18
ATOM     18  C   UNL     1      14.508  35.493  29.779  1.00  0.00     0.000 C 
BRANCH  18  19
ATOM     19  C   UNL     1      13.842  34.262  30.398  1.00  0.00    -0.003 C 
ATOM     20  C   UNL     1      14.504  32.951  30.004  1.00  0.00     0.004 C 
ENDBRANCH  18  19
ENDBRANCH  17  18
ENDBRANCH  16  17
ENDBRANCH  15  16
ENDBRANCH  13  14
ENDBRANCH  12  13
ENDBRANCH   1  11
TORSDOF 14
ENDMDL
MODEL 20
REMARK VINA RESULT:    -5.599      4.565      6.100
REMARK INTER + INTRA:         -12.779
REMARK INTER:                 -11.738
REMARK INTRA:                  -1.041
REMARK UNBOUND:                -2.598
REMARK SMILES CCCCC/C=C\C/C=C\CCCCCCCC(=O)[O-]
REMARK SMILES IDX 11 1 12 2 13 3 14 4 15 5 16 6 17 7 18 8 19 9 20 10 10 11
REMARK SMILES IDX 9 12 8 13 7 14 6 15 5 16 4 17 3 18 2 19 1 20
REMARK H PARENT
REMARK INDEX MAP 8 1 6 2 4 3 3 4 5 5 7 6 9 7 18 8 2 9 1 10 12 11 15 12 16 13
REMARK INDEX MAP 19 14 17 15 13 16 10 17 11 18 14 19 20 20
ROOT
ATOM      1  C   UNL     1       9.860  31.653  21.204  1.00  0.00     0.027 C 
ENDROOT
BRANCH   1   2
ATOM      2  C   UNL     1       9.415  31.466  19.749  1.00  0.00     0.004 C 
BRANCH   2   3
ATOM      3  C   UNL     1       8.218  32.342  19.363  1.00  0.00     0.000 C 
BRANCH   3   4
ATOM      4  C   UNL     1       6.892  31.849  19.952  1.00  0.00     0.000 C 
BRANCH   4   5
ATOM      5  C   UNL     1       5.792  31.669  18.903  1.00  0.00     0.000 C 
BRANCH   5   6
ATOM      6  C   UNL     1       5.638  30.195  18.510  1.00  0.00     0.006 C 
BRANCH   6   7
ATOM      7  C   UNL     1       6.088  29.924  17.075  1.00  0.00     0.053 C 
BRANCH   7   8
ATOM      8  C   UNL     1       7.546  29.548  16.971  1.00  0.00     0.041 C 
ATOM      9  O   UNL     1       8.115  28.684  17.621  1.00  0.00    -0.550 OA
ATOM     10  O   UNL     1       8.155  30.295  16.015  1.00  0.00    -0.550 OA
ENDBRANCH   7   8
ENDBRANCH   6   7
ENDBRANCH   5   6
ENDBRANCH   4   5
ENDBRANCH   3   4
ENDBRANCH   2   3
ENDBRANCH   1   2
BRANCH   1  11
ATOM     11  C   UNL     1      11.345  31.518  21.388  1.00  0.00    -0.031 C 
ATOM     12  C   UNL     1      11.977  31.768  22.545  1.00  0.00    -0.027 C 
BRANCH  12  13
ATOM     13  C   UNL     1      11.279  32.211  23.797  1.00  0.00     0.054 C 
BRANCH  13  14
ATOM     14  C   UNL     1      12.260  32.563  24.879  1.00  0.00    -0.027 C 
ATOM     15  C   UNL     1      11.984  33.411  25.882  1.00  0.00    -0.031 C 
BRANCH  15  16
ATOM     16  C   UNL     1      10.698  34.155  26.121  1.00  0.00     0.027 C 
BRANCH  16  17
ATOM     17  C   UNL     1      10.700  35.193  27.251  1.00  0.00     0.004 C 
BRANCH  17  18
ATOM     18  C   UNL     1      11.702  34.815  28.346  1.00  0.00     0.000 C 
BRANCH  18  19
ATOM     19  C   UNL     1      12.367  36.027  29.003  1.00  0.00    -0.003 C 
ATOM     20  C   UNL     1      13.524  36.596  28.197  1.00  0.00     0.004 C 
ENDBRANCH  18  19
ENDBRANCH  17  18
ENDBRANCH  16  17
ENDBRANCH  15  16
ENDBRANCH  13  14
ENDBRANCH  12  13
ENDBRANCH   1  11
TORSDOF 14
ENDMDL
