MODEL 1
REMARK VINA RESULT:    -6.873      0.000      0.000
REMARK INTER + INTRA:         -14.478
REMARK INTER:                 -12.499
REMARK INTRA:                  -1.980
REMARK UNBOUND:                -1.980
REMARK SMILES CCCCC/C=C\C/C=C\CCCCCCCC(=O)[O-]
REMARK SMILES IDX 11 1 12 2 13 3 14 4 15 5 16 6 17 7 18 8 19 9 20 10 10 11
REMARK SMILES IDX 9 12 8 13 7 14 6 15 5 16 4 17 3 18 2 19 1 20
REMARK H PARENT
REMARK INDEX MAP 8 1 6 2 4 3 3 4 5 5 7 6 9 7 18 8 2 9 1 10 12 11 15 12 16 13
REMARK INDEX MAP 19 14 17 15 13 16 10 17 11 18 14 19 20 20
ROOT
ATOM      1  C   UNL     1       9.175  32.979  17.401  1.00  0.00     0.027 C 
ENDROOT
BRANCH   1   2
ATOM      2  C   UNL     1      10.624  32.746  17.844  1.00  0.00     0.004 C 
BRANCH   2   3
ATOM      3  C   UNL     1      10.744  31.831  19.067  1.00  0.00     0.000 C 
BRANCH   3   4
ATOM      4  C   UNL     1       9.404  31.568  19.762  1.00  0.00     0.000 C 
BRANCH   4   5
ATOM      5  C   UNL     1       9.414  31.916  21.252  1.00  0.00     0.000 C 
BRANCH   5   6
ATOM      6  C   UNL     1      10.847  32.104  21.766  1.00  0.00     0.006 C 
BRANCH   6   7
ATOM      7  C   UNL     1      10.934  32.025  23.290  1.00  0.00     0.053 C 
BRANCH   7   8
ATOM      8  C   UNL     1      12.342  32.182  23.812  1.00  0.00     0.041 C 
ATOM      9  O   UNL     1      13.367  31.867  23.226  1.00  0.00    -0.550 OA
ATOM     10  O   UNL     1      12.323  32.763  25.039  1.00  0.00    -0.550 OA
ENDBRANCH   7   8
ENDBRANCH   6   7
ENDBRANCH   5   6
ENDBRANCH   4   5
ENDBRANCH   3   4
ENDBRANCH   2   3
ENDBRANCH   1   2
BRANCH   1  11
ATOM     11  C   UNL     1       8.896  32.479  16.012  1.00  0.00    -0.031 C 
ATOM     12  C   UNL     1       8.540  31.216  15.732  1.00  0.00    -0.027 C 
BRANCH  12  13
ATOM     13  C   UNL     1       8.375  30.147  16.772  1.00  0.00     0.054 C 
BRANCH  13  14
ATOM     14  C   UNL     1       6.975  29.603  16.786  1.00  0.00    -0.027 C 
ATOM     15  C   UNL     1       5.998  30.092  17.565  1.00  0.00    -0.031 C 
BRANCH  15  16
ATOM     16  C   UNL     1       6.094  31.232  18.544  1.00  0.00     0.027 C 
BRANCH  16  17
ATOM     17  C   UNL     1       4.875  32.158  18.648  1.00  0.00     0.004 C 
BRANCH  17  18
ATOM     18  C   UNL     1       4.475  32.700  17.273  1.00  0.00     0.000 C 
BRANCH  18  19
ATOM     19  C   UNL     1       5.383  33.828  16.778  1.00  0.00    -0.003 C 
ATOM     20  C   UNL     1       4.664  34.851  15.912  1.00  0.00     0.004 C 
ENDBRANCH  18  19
ENDBRANCH  17  18
ENDBRANCH  16  17
ENDBRANCH  15  16
ENDBRANCH  13  14
ENDBRANCH  12  13
ENDBRANCH   1  11
TORSDOF 14
ENDMDL
MODEL 2
REMARK VINA RESULT:    -6.487      1.809      3.788
REMARK INTER + INTRA:         -13.775
REMARK INTER:                 -11.718
REMARK INTRA:                  -2.057
REMARK UNBOUND:                -1.980
REMARK SMILES CCCCC/C=C\C/C=C\CCCCCCCC(=O)[O-]
REMARK SMILES IDX 11 1 12 2 13 3 14 4 15 5 16 6 17 7 18 8 19 9 20 10 10 11
REMARK SMILES IDX 9 12 8 13 7 14 6 15 5 16 4 17 3 18 2 19 1 20
REMARK H PARENT
REMARK INDEX MAP 8 1 6 2 4 3 3 4 5 5 7 6 9 7 18 8 2 9 1 10 12 11 15 12 16 13
REMARK INDEX MAP 19 14 17 15 13 16 10 17 11 18 14 19 20 20
ROOT
ATOM      1  C   UNL     1       6.166  31.886  20.481  1.00  0.00     0.027 C 
ENDROOT
BRANCH   1   2
ATOM      2  C   UNL     1       5.656  32.309  21.863  1.00  0.00     0.004 C 
BRANCH   2   3
ATOM      3  C   UNL     1       6.520  33.387  22.525  1.00  0.00     0.000 C 
BRANCH   3   4
ATOM      4  C   UNL     1       8.001  33.297  22.141  1.00  0.00     0.000 C 
BRANCH   4   5
ATOM      5  C   UNL     1       8.943  33.319  23.347  1.00  0.00     0.000 C 
BRANCH   5   6
ATOM      6  C   UNL     1      10.259  32.597  23.034  1.00  0.00     0.006 C 
BRANCH   6   7
ATOM      7  C   UNL     1      10.269  31.982  21.635  1.00  0.00     0.053 C 
BRANCH   7   8
ATOM      8  C   UNL     1      11.627  31.468  21.222  1.00  0.00     0.041 C 
ATOM      9  O   UNL     1      11.926  31.024  20.124  1.00  0.00    -0.550 OA
ATOM     10  O   UNL     1      12.506  31.593  22.249  1.00  0.00    -0.550 OA
ENDBRANCH   7   8
ENDBRANCH   6   7
ENDBRANCH   5   6
ENDBRANCH   4   5
ENDBRANCH   3   4
ENDBRANCH   2   3
ENDBRANCH   1   2
BRANCH   1  11
ATOM     11  C   UNL     1       5.130  32.025  19.402  1.00  0.00    -0.031 C 
ATOM     12  C   UNL     1       4.968  31.140  18.407  1.00  0.00    -0.027 C 
BRANCH  12  13
ATOM     13  C   UNL     1       5.801  29.902  18.249  1.00  0.00     0.054 C 
BRANCH  13  14
ATOM     14  C   UNL     1       6.318  29.761  16.846  1.00  0.00    -0.027 C 
ATOM     15  C   UNL     1       7.624  29.706  16.540  1.00  0.00    -0.031 C 
BRANCH  15  16
ATOM     16  C   UNL     1       8.789  29.773  17.490  1.00  0.00     0.027 C 
BRANCH  16  17
ATOM     17  C   UNL     1       8.945  31.065  18.302  1.00  0.00     0.004 C 
BRANCH  17  18
ATOM     18  C   UNL     1       9.788  32.095  17.543  1.00  0.00     0.000 C 
BRANCH  18  19
ATOM     19  C   UNL     1       8.959  33.000  16.628  1.00  0.00    -0.003 C 
ATOM     20  C   UNL     1       7.618  33.400  17.223  1.00  0.00     0.004 C 
ENDBRANCH  18  19
ENDBRANCH  17  18
ENDBRANCH  16  17
ENDBRANCH  15  16
ENDBRANCH  13  14
ENDBRANCH  12  13
ENDBRANCH   1  11
TORSDOF 14
ENDMDL
MODEL 3
REMARK VINA RESULT:    -6.388      1.453      2.839
REMARK INTER + INTRA:         -13.597
REMARK INTER:                 -11.814
REMARK INTRA:                  -1.782
REMARK UNBOUND:                -1.980
REMARK SMILES CCCCC/C=C\C/C=C\CCCCCCCC(=O)[O-]
REMARK SMILES IDX 11 1 12 2 13 3 14 4 15 5 16 6 17 7 18 8 19 9 20 10 10 11
REMARK SMILES IDX 9 12 8 13 7 14 6 15 5 16 4 17 3 18 2 19 1 20
REMARK H PARENT
REMARK INDEX MAP 8 1 6 2 4 3 3 4 5 5 7 6 9 7 18 8 2 9 1 10 12 11 15 12 16 13
REMARK INDEX MAP 19 14 17 15 13 16 10 17 11 18 14 19 20 20
ROOT
ATOM      1  C   UNL     1       8.503  30.561  16.682  1.00  0.00     0.027 C 
ENDROOT
BRANCH   1   2
ATOM      2  C   UNL     1       9.143  30.574  18.075  1.00  0.00     0.004 C 
BRANCH   2   3
ATOM      3  C   UNL     1      10.523  31.240  18.102  1.00  0.00     0.000 C 
BRANCH   3   4
ATOM      4  C   UNL     1      10.838  31.928  19.435  1.00  0.00     0.000 C 
BRANCH   4   5
ATOM      5  C   UNL     1       9.734  31.756  20.481  1.00  0.00     0.000 C 
BRANCH   5   6
ATOM      6  C   UNL     1      10.212  32.208  21.867  1.00  0.00     0.006 C 
BRANCH   6   7
ATOM      7  C   UNL     1      11.423  31.413  22.354  1.00  0.00     0.053 C 
BRANCH   7   8
ATOM      8  C   UNL     1      12.087  32.026  23.564  1.00  0.00     0.041 C 
ATOM      9  O   UNL     1      11.519  32.457  24.556  1.00  0.00    -0.550 OA
ATOM     10  O   UNL     1      13.436  32.009  23.415  1.00  0.00    -0.550 OA
ENDBRANCH   7   8
ENDBRANCH   6   7
ENDBRANCH   5   6
ENDBRANCH   4   5
ENDBRANCH   3   4
ENDBRANCH   2   3
ENDBRANCH   1   2
BRANCH   1  11
ATOM     11  C   UNL     1       8.761  31.819  15.903  1.00  0.00    -0.031 C 
ATOM     12  C   UNL     1       8.297  33.026  16.263  1.00  0.00    -0.027 C 
BRANCH  12  13
ATOM     13  C   UNL     1       7.466  33.267  17.488  1.00  0.00     0.054 C 
BRANCH  13  14
ATOM     14  C   UNL     1       6.005  33.364  17.153  1.00  0.00    -0.027 C 
ATOM     15  C   UNL     1       5.107  32.421  17.477  1.00  0.00    -0.031 C 
BRANCH  15  16
ATOM     16  C   UNL     1       5.361  31.130  18.208  1.00  0.00     0.027 C 
BRANCH  16  17
ATOM     17  C   UNL     1       5.036  31.108  19.707  1.00  0.00     0.004 C 
BRANCH  17  18
ATOM     18  C   UNL     1       6.092  31.872  20.511  1.00  0.00     0.000 C 
BRANCH  18  19
ATOM     19  C   UNL     1       5.538  32.512  21.786  1.00  0.00    -0.003 C 
ATOM     20  C   UNL     1       6.586  33.260  22.595  1.00  0.00     0.004 C 
ENDBRANCH  18  19
ENDBRANCH  17  18
ENDBRANCH  16  17
ENDBRANCH  15  16
ENDBRANCH  13  14
ENDBRANCH  12  13
ENDBRANCH   1  11
TORSDOF 14
ENDMDL
MODEL 4
REMARK VINA RESULT:    -6.357      2.881      7.085
REMARK INTER + INTRA:         -13.540
REMARK INTER:                 -11.867
REMARK INTRA:                  -1.673
REMARK UNBOUND:                -1.980
REMARK SMILES CCCCC/C=C\C/C=C\CCCCCCCC(=O)[O-]
REMARK SMILES IDX 11 1 12 2 13 3 14 4 15 5 16 6 17 7 18 8 19 9 20 10 10 11
REMARK SMILES IDX 9 12 8 13 7 14 6 15 5 16 4 17 3 18 2 19 1 20
REMARK H PARENT
REMARK INDEX MAP 8 1 6 2 4 3 3 4 5 5 7 6 9 7 18 8 2 9 1 10 12 11 15 12 16 13
REMARK INDEX MAP 19 14 17 15 13 16 10 17 11 18 14 19 20 20
ROOT
ATOM      1  C   UNL     1       5.684  32.217  18.434  1.00  0.00     0.027 C 
ENDROOT
BRANCH   1   2
ATOM      2  C   UNL     1       4.915  31.371  17.413  1.00  0.00     0.004 C 
BRANCH   2   3
ATOM      3  C   UNL     1       5.402  29.920  17.338  1.00  0.00     0.000 C 
BRANCH   3   4
ATOM      4  C   UNL     1       6.750  29.769  16.624  1.00  0.00     0.000 C 
BRANCH   4   5
ATOM      5  C   UNL     1       7.896  29.390  17.566  1.00  0.00     0.000 C 
BRANCH   5   6
ATOM      6  C   UNL     1       8.993  30.461  17.561  1.00  0.00     0.006 C 
BRANCH   6   7
ATOM      7  C   UNL     1       8.772  31.518  16.479  1.00  0.00     0.053 C 
BRANCH   7   8
ATOM      8  C   UNL     1       9.611  32.756  16.679  1.00  0.00     0.041 C 
ATOM      9  O   UNL     1      10.716  32.962  16.201  1.00  0.00    -0.550 OA
ATOM     10  O   UNL     1       8.948  33.650  17.456  1.00  0.00    -0.550 OA
ENDBRANCH   7   8
ENDBRANCH   6   7
ENDBRANCH   5   6
ENDBRANCH   4   5
ENDBRANCH   3   4
ENDBRANCH   2   3
ENDBRANCH   1   2
BRANCH   1  11
ATOM     11  C   UNL     1       5.541  31.715  19.843  1.00  0.00    -0.031 C 
ATOM     12  C   UNL     1       6.467  31.900  20.797  1.00  0.00    -0.027 C 
BRANCH  12  13
ATOM     13  C   UNL     1       7.757  32.633  20.575  1.00  0.00     0.054 C 
BRANCH  13  14
ATOM     14  C   UNL     1       8.929  31.693  20.567  1.00  0.00    -0.027 C 
ATOM     15  C   UNL     1       9.904  31.718  21.490  1.00  0.00    -0.031 C 
BRANCH  15  16
ATOM     16  C   UNL     1      10.024  32.647  22.668  1.00  0.00     0.027 C 
BRANCH  16  17
ATOM     17  C   UNL     1      10.914  32.182  23.827  1.00  0.00     0.004 C 
BRANCH  17  18
ATOM     18  C   UNL     1      10.498  32.847  25.143  1.00  0.00     0.000 C 
BRANCH  18  19
ATOM     19  C   UNL     1      11.686  33.277  26.006  1.00  0.00    -0.003 C 
ATOM     20  C   UNL     1      11.514  34.652  26.634  1.00  0.00     0.004 C 
ENDBRANCH  18  19
ENDBRANCH  17  18
ENDBRANCH  16  17
ENDBRANCH  15  16
ENDBRANCH  13  14
ENDBRANCH  12  13
ENDBRANCH   1  11
TORSDOF 14
ENDMDL
MODEL 5
REMARK VINA RESULT:    -6.313      1.676      3.046
REMARK INTER + INTRA:         -13.459
REMARK INTER:                 -11.268
REMARK INTRA:                  -2.191
REMARK UNBOUND:                -1.980
REMARK SMILES CCCCC/C=C\C/C=C\CCCCCCCC(=O)[O-]
REMARK SMILES IDX 11 1 12 2 13 3 14 4 15 5 16 6 17 7 18 8 19 9 20 10 10 11
REMARK SMILES IDX 9 12 8 13 7 14 6 15 5 16 4 17 3 18 2 19 1 20
REMARK H PARENT
REMARK INDEX MAP 8 1 6 2 4 3 3 4 5 5 7 6 9 7 18 8 2 9 1 10 12 11 15 12 16 13
REMARK INDEX MAP 19 14 17 15 13 16 10 17 11 18 14 19 20 20
ROOT
ATOM      1  C   UNL     1       7.926  32.365  16.687  1.00  0.00     0.027 C 
ENDROOT
BRANCH   1   2
ATOM      2  C   UNL     1       9.106  33.344  16.713  1.00  0.00     0.004 C 
BRANCH   2   3
ATOM      3  C   UNL     1      10.469  32.648  16.803  1.00  0.00     0.000 C 
BRANCH   3   4
ATOM      4  C   UNL     1      11.131  32.788  18.178  1.00  0.00     0.000 C 
BRANCH   4   5
ATOM      5  C   UNL     1      10.974  31.544  19.056  1.00  0.00     0.000 C 
BRANCH   5   6
ATOM      6  C   UNL     1       9.977  31.794  20.194  1.00  0.00     0.006 C 
BRANCH   6   7
ATOM      7  C   UNL     1      10.369  31.071  21.482  1.00  0.00     0.053 C 
BRANCH   7   8
ATOM      8  C   UNL     1      11.340  31.856  22.331  1.00  0.00     0.041 C 
ATOM      9  O   UNL     1      11.051  32.727  23.137  1.00  0.00    -0.550 OA
ATOM     10  O   UNL     1      12.610  31.437  22.097  1.00  0.00    -0.550 OA
ENDBRANCH   7   8
ENDBRANCH   6   7
ENDBRANCH   5   6
ENDBRANCH   4   5
ENDBRANCH   3   4
ENDBRANCH   2   3
ENDBRANCH   1   2
BRANCH   1  11
ATOM     11  C   UNL     1       8.298  31.008  16.161  1.00  0.00    -0.031 C 
ATOM     12  C   UNL     1       8.108  29.868  16.842  1.00  0.00    -0.027 C 
BRANCH  12  13
ATOM     13  C   UNL     1       7.500  29.807  18.212  1.00  0.00     0.054 C 
BRANCH  13  14
ATOM     14  C   UNL     1       6.001  29.734  18.147  1.00  0.00    -0.027 C 
ATOM     15  C   UNL     1       5.192  30.701  18.607  1.00  0.00    -0.031 C 
BRANCH  15  16
ATOM     16  C   UNL     1       5.594  31.998  19.255  1.00  0.00     0.027 C 
BRANCH  16  17
ATOM     17  C   UNL     1       6.257  31.905  20.635  1.00  0.00     0.004 C 
BRANCH  17  18
ATOM     18  C   UNL     1       5.353  32.495  21.722  1.00  0.00     0.000 C 
BRANCH  18  19
ATOM     19  C   UNL     1       6.127  33.216  22.828  1.00  0.00    -0.003 C 
ATOM     20  C   UNL     1       7.535  33.621  22.419  1.00  0.00     0.004 C 
ENDBRANCH  18  19
ENDBRANCH  17  18
ENDBRANCH  16  17
ENDBRANCH  15  16
ENDBRANCH  13  14
ENDBRANCH  12  13
ENDBRANCH   1  11
TORSDOF 14
ENDMDL
MODEL 6
REMARK VINA RESULT:    -6.283      1.784      3.785
REMARK INTER + INTRA:         -13.405
REMARK INTER:                 -11.815
REMARK INTRA:                  -1.590
REMARK UNBOUND:                -1.980
REMARK SMILES CCCCC/C=C\C/C=C\CCCCCCCC(=O)[O-]
REMARK SMILES IDX 11 1 12 2 13 3 14 4 15 5 16 6 17 7 18 8 19 9 20 10 10 11
REMARK SMILES IDX 9 12 8 13 7 14 6 15 5 16 4 17 3 18 2 19 1 20
REMARK H PARENT
REMARK INDEX MAP 8 1 6 2 4 3 3 4 5 5 7 6 9 7 18 8 2 9 1 10 12 11 15 12 16 13
REMARK INDEX MAP 19 14 17 15 13 16 10 17 11 18 14 19 20 20
ROOT
ATOM      1  C   UNL     1       7.823  32.137  20.128  1.00  0.00     0.027 C 
ENDROOT
BRANCH   1   2
ATOM      2  C   UNL     1       8.815  32.308  21.283  1.00  0.00     0.004 C 
BRANCH   2   3
ATOM      3  C   UNL     1      10.118  31.525  21.084  1.00  0.00     0.000 C 
BRANCH   3   4
ATOM      4  C   UNL     1      11.176  31.828  22.151  1.00  0.00     0.000 C 
BRANCH   4   5
ATOM      5  C   UNL     1      10.577  32.192  23.512  1.00  0.00     0.000 C 
BRANCH   5   6
ATOM      6  C   UNL     1      11.676  32.551  24.521  1.00  0.00     0.006 C 
BRANCH   6   7
ATOM      7  C   UNL     1      11.120  33.230  25.772  1.00  0.00     0.053 C 
BRANCH   7   8
ATOM      8  C   UNL     1      12.194  33.662  26.740  1.00  0.00     0.041 C 
ATOM      9  O   UNL     1      12.753  34.748  26.758  1.00  0.00    -0.550 OA
ATOM     10  O   UNL     1      12.446  32.670  27.631  1.00  0.00    -0.550 OA
ENDBRANCH   7   8
ENDBRANCH   6   7
ENDBRANCH   5   6
ENDBRANCH   4   5
ENDBRANCH   3   4
ENDBRANCH   2   3
ENDBRANCH   1   2
BRANCH   1  11
ATOM     11  C   UNL     1       6.425  31.839  20.591  1.00  0.00    -0.031 C 
ATOM     12  C   UNL     1       5.356  31.835  19.780  1.00  0.00    -0.027 C 
BRANCH  12  13
ATOM     13  C   UNL     1       5.426  32.127  18.310  1.00  0.00     0.054 C 
BRANCH  13  14
ATOM     14  C   UNL     1       4.843  31.006  17.497  1.00  0.00    -0.027 C 
ATOM     15  C   UNL     1       5.531  29.908  17.149  1.00  0.00    -0.031 C 
BRANCH  15  16
ATOM     16  C   UNL     1       6.963  29.583  17.482  1.00  0.00     0.027 C 
BRANCH  16  17
ATOM     17  C   UNL     1       8.037  30.167  16.555  1.00  0.00     0.004 C 
BRANCH  17  18
ATOM     18  C   UNL     1       9.143  30.857  17.359  1.00  0.00     0.000 C 
BRANCH  18  19
ATOM     19  C   UNL     1       9.479  32.259  16.848  1.00  0.00    -0.003 C 
ATOM     20  C   UNL     1      10.637  32.913  17.585  1.00  0.00     0.004 C 
ENDBRANCH  18  19
ENDBRANCH  17  18
ENDBRANCH  16  17
ENDBRANCH  15  16
ENDBRANCH  13  14
ENDBRANCH  12  13
ENDBRANCH   1  11
TORSDOF 14
ENDMDL
MODEL 7
REMARK VINA RESULT:    -6.251      1.857      3.615
REMARK INTER + INTRA:         -13.347
REMARK INTER:                 -11.827
REMARK INTRA:                  -1.520
REMARK UNBOUND:                -1.980
REMARK SMILES CCCCC/C=C\C/C=C\CCCCCCCC(=O)[O-]
REMARK SMILES IDX 11 1 12 2 13 3 14 4 15 5 16 6 17 7 18 8 19 9 20 10 10 11
REMARK SMILES IDX 9 12 8 13 7 14 6 15 5 16 4 17 3 18 2 19 1 20
REMARK H PARENT
REMARK INDEX MAP 8 1 6 2 4 3 3 4 5 5 7 6 9 7 18 8 2 9 1 10 12 11 15 12 16 13
REMARK INDEX MAP 19 14 17 15 13 16 10 17 11 18 14 19 20 20
ROOT
ATOM      1  C   UNL     1       9.772  31.708  20.287  1.00  0.00     0.027 C 
ENDROOT
BRANCH   1   2
ATOM      2  C   UNL     1      10.395  31.112  21.554  1.00  0.00     0.004 C 
BRANCH   2   3
ATOM      3  C   UNL     1      10.677  32.156  22.640  1.00  0.00     0.000 C 
BRANCH   3   4
ATOM      4  C   UNL     1      12.135  32.160  23.113  1.00  0.00     0.000 C 
BRANCH   4   5
ATOM      5  C   UNL     1      12.282  32.346  24.625  1.00  0.00     0.000 C 
BRANCH   5   6
ATOM      6  C   UNL     1      10.971  32.835  25.252  1.00  0.00     0.006 C 
BRANCH   6   7
ATOM      7  C   UNL     1      11.203  33.840  26.379  1.00  0.00     0.053 C 
BRANCH   7   8
ATOM      8  C   UNL     1      11.532  33.186  27.699  1.00  0.00     0.041 C 
ATOM      9  O   UNL     1      12.604  32.690  28.010  1.00  0.00    -0.550 OA
ATOM     10  O   UNL     1      10.461  33.247  28.531  1.00  0.00    -0.550 OA
ENDBRANCH   7   8
ENDBRANCH   6   7
ENDBRANCH   5   6
ENDBRANCH   4   5
ENDBRANCH   3   4
ENDBRANCH   2   3
ENDBRANCH   1   2
BRANCH   1  11
ATOM     11  C   UNL     1      10.736  31.789  19.138  1.00  0.00    -0.031 C 
ATOM     12  C   UNL     1      10.385  32.152  17.895  1.00  0.00    -0.027 C 
BRANCH  12  13
ATOM     13  C   UNL     1       8.986  32.522  17.499  1.00  0.00     0.054 C 
BRANCH  13  14
ATOM     14  C   UNL     1       8.548  31.783  16.267  1.00  0.00    -0.027 C 
ATOM     15  C   UNL     1       8.176  30.494  16.269  1.00  0.00    -0.031 C 
BRANCH  15  16
ATOM     16  C   UNL     1       8.124  29.560  17.448  1.00  0.00     0.027 C 
BRANCH  16  17
ATOM     17  C   UNL     1       6.833  29.564  18.277  1.00  0.00     0.004 C 
BRANCH  17  18
ATOM     18  C   UNL     1       5.679  30.198  17.496  1.00  0.00     0.000 C 
BRANCH  18  19
ATOM     19  C   UNL     1       5.158  31.491  18.127  1.00  0.00    -0.003 C 
ATOM     20  C   UNL     1       5.782  31.801  19.479  1.00  0.00     0.004 C 
ENDBRANCH  18  19
ENDBRANCH  17  18
ENDBRANCH  16  17
ENDBRANCH  15  16
ENDBRANCH  13  14
ENDBRANCH  12  13
ENDBRANCH   1  11
TORSDOF 14
ENDMDL
MODEL 8
REMARK VINA RESULT:    -6.250      2.218      4.256
REMARK INTER + INTRA:         -13.346
REMARK INTER:                 -11.843
REMARK INTRA:                  -1.503
REMARK UNBOUND:                -1.980
REMARK SMILES CCCCC/C=C\C/C=C\CCCCCCCC(=O)[O-]
REMARK SMILES IDX 11 1 12 2 13 3 14 4 15 5 16 6 17 7 18 8 19 9 20 10 10 11
REMARK SMILES IDX 9 12 8 13 7 14 6 15 5 16 4 17 3 18 2 19 1 20
REMARK H PARENT
REMARK INDEX MAP 8 1 6 2 4 3 3 4 5 5 7 6 9 7 18 8 2 9 1 10 12 11 15 12 16 13
REMARK INDEX MAP 19 14 17 15 13 16 10 17 11 18 14 19 20 20
ROOT
ATOM      1  C   UNL     1      10.431  31.685  21.426  1.00  0.00     0.027 C 
ENDROOT
BRANCH   1   2
ATOM      2  C   UNL     1      10.590  32.078  22.899  1.00  0.00     0.004 C 
BRANCH   2   3
ATOM      3  C   UNL     1      12.053  32.190  23.342  1.00  0.00     0.000 C 
BRANCH   3   4
ATOM      4  C   UNL     1      12.212  32.575  24.817  1.00  0.00     0.000 C 
BRANCH   4   5
ATOM      5  C   UNL     1      10.892  32.968  25.487  1.00  0.00     0.000 C 
BRANCH   5   6
ATOM      6  C   UNL     1      11.023  34.307  26.222  1.00  0.00     0.006 C 
BRANCH   6   7
ATOM      7  C   UNL     1      12.412  34.507  26.827  1.00  0.00     0.053 C 
BRANCH   7   8
ATOM      8  C   UNL     1      12.507  34.044  28.261  1.00  0.00     0.041 C 
ATOM      9  O   UNL     1      12.122  34.659  29.243  1.00  0.00    -0.550 OA
ATOM     10  O   UNL     1      13.065  32.807  28.316  1.00  0.00    -0.550 OA
ENDBRANCH   7   8
ENDBRANCH   6   7
ENDBRANCH   5   6
ENDBRANCH   4   5
ENDBRANCH   3   4
ENDBRANCH   2   3
ENDBRANCH   1   2
BRANCH   1  11
ATOM     11  C   UNL     1       9.069  32.001  20.875  1.00  0.00    -0.031 C 
ATOM     12  C   UNL     1       8.725  31.819  19.591  1.00  0.00    -0.027 C 
BRANCH  12  13
ATOM     13  C   UNL     1       9.656  31.277  18.547  1.00  0.00     0.054 C 
BRANCH  13  14
ATOM     14  C   UNL     1       9.273  31.742  17.171  1.00  0.00    -0.027 C 
ATOM     15  C   UNL     1       8.445  31.062  16.363  1.00  0.00    -0.031 C 
BRANCH  15  16
ATOM     16  C   UNL     1       7.760  29.752  16.649  1.00  0.00     0.027 C 
BRANCH  16  17
ATOM     17  C   UNL     1       6.250  29.804  16.910  1.00  0.00     0.004 C 
BRANCH  17  18
ATOM     18  C   UNL     1       5.953  29.954  18.405  1.00  0.00     0.000 C 
BRANCH  18  19
ATOM     19  C   UNL     1       5.052  31.149  18.726  1.00  0.00    -0.003 C 
ATOM     20  C   UNL     1       5.370  32.388  17.903  1.00  0.00     0.004 C 
ENDBRANCH  18  19
ENDBRANCH  17  18
ENDBRANCH  16  17
ENDBRANCH  15  16
ENDBRANCH  13  14
ENDBRANCH  12  13
ENDBRANCH   1  11
TORSDOF 14
ENDMDL
MODEL 9
REMARK VINA RESULT:    -6.211      1.583      2.406
REMARK INTER + INTRA:         -13.274
REMARK INTER:                 -11.905
REMARK INTRA:                  -1.368
REMARK UNBOUND:                -1.980
REMARK SMILES CCCCC/C=C\C/C=C\CCCCCCCC(=O)[O-]
REMARK SMILES IDX 11 1 12 2 13 3 14 4 15 5 16 6 17 7 18 8 19 9 20 10 10 11
REMARK SMILES IDX 9 12 8 13 7 14 6 15 5 16 4 17 3 18 2 19 1 20
REMARK H PARENT
REMARK INDEX MAP 8 1 6 2 4 3 3 4 5 5 7 6 9 7 18 8 2 9 1 10 12 11 15 12 16 13
REMARK INDEX MAP 19 14 17 15 13 16 10 17 11 18 14 19 20 20
ROOT
ATOM      1  C   UNL     1       9.114  31.709  19.632  1.00  0.00     0.027 C 
ENDROOT
BRANCH   1   2
ATOM      2  C   UNL     1      10.415  31.771  20.440  1.00  0.00     0.004 C 
BRANCH   2   3
ATOM      3  C   UNL     1      10.238  31.365  21.907  1.00  0.00     0.000 C 
BRANCH   3   4
ATOM      4  C   UNL     1      10.870  32.355  22.891  1.00  0.00     0.000 C 
BRANCH   4   5
ATOM      5  C   UNL     1       9.876  32.914  23.912  1.00  0.00     0.000 C 
BRANCH   5   6
ATOM      6  C   UNL     1      10.422  32.790  25.340  1.00  0.00     0.006 C 
BRANCH   6   7
ATOM      7  C   UNL     1      11.935  32.997  25.406  1.00  0.00     0.053 C 
BRANCH   7   8
ATOM      8  C   UNL     1      12.391  33.626  26.700  1.00  0.00     0.041 C 
ATOM      9  O   UNL     1      12.622  34.812  26.882  1.00  0.00    -0.550 OA
ATOM     10  O   UNL     1      12.487  32.682  27.671  1.00  0.00    -0.550 OA
ENDBRANCH   7   8
ENDBRANCH   6   7
ENDBRANCH   5   6
ENDBRANCH   4   5
ENDBRANCH   3   4
ENDBRANCH   2   3
ENDBRANCH   1   2
BRANCH   1  11
ATOM     11  C   UNL     1       9.324  31.926  18.160  1.00  0.00    -0.031 C 
ATOM     12  C   UNL     1       8.928  31.059  17.216  1.00  0.00    -0.027 C 
BRANCH  12  13
ATOM     13  C   UNL     1       8.226  29.767  17.513  1.00  0.00     0.054 C 
BRANCH  13  14
ATOM     14  C   UNL     1       6.915  29.673  16.786  1.00  0.00    -0.027 C 
ATOM     15  C   UNL     1       5.742  30.049  17.322  1.00  0.00    -0.031 C 
BRANCH  15  16
ATOM     16  C   UNL     1       5.505  30.614  18.696  1.00  0.00     0.027 C 
BRANCH  16  17
ATOM     17  C   UNL     1       5.370  32.138  18.802  1.00  0.00     0.004 C 
BRANCH  17  18
ATOM     18  C   UNL     1       5.576  32.807  17.440  1.00  0.00     0.000 C 
BRANCH  18  19
ATOM     19  C   UNL     1       4.272  33.286  16.797  1.00  0.00    -0.003 C 
ATOM     20  C   UNL     1       4.391  34.645  16.124  1.00  0.00     0.004 C 
ENDBRANCH  18  19
ENDBRANCH  17  18
ENDBRANCH  16  17
ENDBRANCH  15  16
ENDBRANCH  13  14
ENDBRANCH  12  13
ENDBRANCH   1  11
TORSDOF 14
ENDMDL
MODEL 10
REMARK VINA RESULT:    -6.200      3.204      6.268
REMARK INTER + INTRA:         -13.254
REMARK INTER:                 -10.905
REMARK INTRA:                  -2.349
REMARK UNBOUND:                -1.980
REMARK SMILES CCCCC/C=C\C/C=C\CCCCCCCC(=O)[O-]
REMARK SMILES IDX 11 1 12 2 13 3 14 4 15 5 16 6 17 7 18 8 19 9 20 10 10 11
REMARK SMILES IDX 9 12 8 13 7 14 6 15 5 16 4 17 3 18 2 19 1 20
REMARK H PARENT
REMARK INDEX MAP 8 1 6 2 4 3 3 4 5 5 7 6 9 7 18 8 2 9 1 10 12 11 15 12 16 13
REMARK INDEX MAP 19 14 17 15 13 16 10 17 11 18 14 19 20 20
ROOT
ATOM      1  C   UNL     1       8.002  33.212  21.826  1.00  0.00     0.027 C 
ENDROOT
BRANCH   1   2
ATOM      2  C   UNL     1       6.598  33.293  22.436  1.00  0.00     0.004 C 
BRANCH   2   3
ATOM      3  C   UNL     1       5.573  32.411  21.716  1.00  0.00     0.000 C 
BRANCH   3   4
ATOM      4  C   UNL     1       6.090  31.836  20.393  1.00  0.00     0.000 C 
BRANCH   4   5
ATOM      5  C   UNL     1       4.981  31.572  19.372  1.00  0.00     0.000 C 
BRANCH   5   6
ATOM      6  C   UNL     1       5.504  30.747  18.189  1.00  0.00     0.006 C 
BRANCH   6   7
ATOM      7  C   UNL     1       6.754  29.944  18.545  1.00  0.00     0.053 C 
BRANCH   7   8
ATOM      8  C   UNL     1       7.414  29.311  17.344  1.00  0.00     0.041 C 
ATOM      9  O   UNL     1       7.194  29.583  16.174  1.00  0.00    -0.550 OA
ATOM     10  O   UNL     1       8.332  28.394  17.745  1.00  0.00    -0.550 OA
ENDBRANCH   7   8
ENDBRANCH   6   7
ENDBRANCH   5   6
ENDBRANCH   4   5
ENDBRANCH   3   4
ENDBRANCH   2   3
ENDBRANCH   1   2
BRANCH   1  11
ATOM     11  C   UNL     1       9.097  33.327  22.849  1.00  0.00    -0.031 C 
ATOM     12  C   UNL     1      10.130  32.474  22.933  1.00  0.00    -0.027 C 
BRANCH  12  13
ATOM     13  C   UNL     1      10.320  31.302  22.016  1.00  0.00     0.054 C 
BRANCH  13  14
ATOM     14  C   UNL     1      11.553  31.457  21.173  1.00  0.00    -0.027 C 
ATOM     15  C   UNL     1      11.527  31.586  19.837  1.00  0.00    -0.031 C 
BRANCH  15  16
ATOM     16  C   UNL     1      10.315  31.601  18.945  1.00  0.00     0.027 C 
BRANCH  16  17
ATOM     17  C   UNL     1      10.038  32.899  18.177  1.00  0.00     0.004 C 
BRANCH  17  18
ATOM     18  C   UNL     1       8.536  33.093  17.945  1.00  0.00     0.000 C 
BRANCH  18  19
ATOM     19  C   UNL     1       8.141  33.054  16.467  1.00  0.00    -0.003 C 
ATOM     20  C   UNL     1       9.216  32.465  15.566  1.00  0.00     0.004 C 
ENDBRANCH  18  19
ENDBRANCH  17  18
ENDBRANCH  16  17
ENDBRANCH  15  16
ENDBRANCH  13  14
ENDBRANCH  12  13
ENDBRANCH   1  11
TORSDOF 14
ENDMDL
MODEL 11
REMARK VINA RESULT:    -6.165      4.859     10.195
REMARK INTER + INTRA:         -13.190
REMARK INTER:                 -11.907
REMARK INTRA:                  -1.284
REMARK UNBOUND:                -1.980
REMARK SMILES CCCCC/C=C\C/C=C\CCCCCCCC(=O)[O-]
REMARK SMILES IDX 11 1 12 2 13 3 14 4 15 5 16 6 17 7 18 8 19 9 20 10 10 11
REMARK SMILES IDX 9 12 8 13 7 14 6 15 5 16 4 17 3 18 2 19 1 20
REMARK H PARENT
REMARK INDEX MAP 8 1 6 2 4 3 3 4 5 5 7 6 9 7 18 8 2 9 1 10 12 11 15 12 16 13
REMARK INDEX MAP 19 14 17 15 13 16 10 17 11 18 14 19 20 20
ROOT
ATOM      1  C   UNL     1      12.035  32.206  24.232  1.00  0.00     0.027 C 
ENDROOT
BRANCH   1   2
ATOM      2  C   UNL     1      11.857  31.833  22.756  1.00  0.00     0.004 C 
BRANCH   2   3
ATOM      3  C   UNL     1      10.422  32.019  22.253  1.00  0.00     0.000 C 
BRANCH   3   4
ATOM      4  C   UNL     1      10.273  31.788  20.745  1.00  0.00     0.000 C 
BRANCH   4   5
ATOM      5  C   UNL     1       8.816  31.700  20.286  1.00  0.00     0.000 C 
BRANCH   5   6
ATOM      6  C   UNL     1       8.706  31.847  18.763  1.00  0.00     0.006 C 
BRANCH   6   7
ATOM      7  C   UNL     1       9.385  30.700  18.016  1.00  0.00     0.053 C 
BRANCH   7   8
ATOM      8  C   UNL     1       8.406  29.760  17.355  1.00  0.00     0.041 C 
ATOM      9  O   UNL     1       7.857  28.804  17.881  1.00  0.00    -0.550 OA
ATOM     10  O   UNL     1       8.185  30.143  16.071  1.00  0.00    -0.550 OA
ENDBRANCH   7   8
ENDBRANCH   6   7
ENDBRANCH   5   6
ENDBRANCH   4   5
ENDBRANCH   3   4
ENDBRANCH   2   3
ENDBRANCH   1   2
BRANCH   1  11
ATOM     11  C   UNL     1      10.750  32.608  24.898  1.00  0.00    -0.031 C 
ATOM     12  C   UNL     1      10.686  33.172  26.114  1.00  0.00    -0.027 C 
BRANCH  12  13
ATOM     13  C   UNL     1      11.889  33.471  26.958  1.00  0.00     0.054 C 
BRANCH  13  14
ATOM     14  C   UNL     1      12.383  34.873  26.736  1.00  0.00    -0.027 C 
ATOM     15  C   UNL     1      13.075  35.568  27.652  1.00  0.00    -0.031 C 
BRANCH  15  16
ATOM     16  C   UNL     1      13.480  35.115  29.029  1.00  0.00     0.027 C 
BRANCH  16  17
ATOM     17  C   UNL     1      12.553  35.505  30.186  1.00  0.00     0.004 C 
BRANCH  17  18
ATOM     18  C   UNL     1      11.622  34.349  30.562  1.00  0.00     0.000 C 
BRANCH  18  19
ATOM     19  C   UNL     1      10.138  34.704  30.444  1.00  0.00    -0.003 C 
ATOM     20  C   UNL     1       9.872  35.927  29.580  1.00  0.00     0.004 C 
ENDBRANCH  18  19
ENDBRANCH  17  18
ENDBRANCH  16  17
ENDBRANCH  15  16
ENDBRANCH  13  14
ENDBRANCH  12  13
ENDBRANCH   1  11
TORSDOF 14
ENDMDL
MODEL 12
REMARK VINA RESULT:    -6.141      2.375      4.442
REMARK INTER + INTRA:         -13.146
REMARK INTER:                 -11.683
REMARK INTRA:                  -1.462
REMARK UNBOUND:                -1.980
REMARK SMILES CCCCC/C=C\C/C=C\CCCCCCCC(=O)[O-]
REMARK SMILES IDX 11 1 12 2 13 3 14 4 15 5 16 6 17 7 18 8 19 9 20 10 10 11
REMARK SMILES IDX 9 12 8 13 7 14 6 15 5 16 4 17 3 18 2 19 1 20
REMARK H PARENT
REMARK INDEX MAP 8 1 6 2 4 3 3 4 5 5 7 6 9 7 18 8 2 9 1 10 12 11 15 12 16 13
REMARK INDEX MAP 19 14 17 15 13 16 10 17 11 18 14 19 20 20
ROOT
ATOM      1  C   UNL     1       7.776  33.272  22.024  1.00  0.00     0.027 C 
ENDROOT
BRANCH   1   2
ATOM      2  C   UNL     1       8.872  33.484  23.075  1.00  0.00     0.004 C 
BRANCH   2   3
ATOM      3  C   UNL     1      10.074  32.549  22.895  1.00  0.00     0.000 C 
BRANCH   3   4
ATOM      4  C   UNL     1      10.844  32.296  24.195  1.00  0.00     0.000 C 
BRANCH   4   5
ATOM      5  C   UNL     1      10.168  32.898  25.429  1.00  0.00     0.000 C 
BRANCH   5   6
ATOM      6  C   UNL     1      11.113  33.853  26.167  1.00  0.00     0.006 C 
BRANCH   6   7
ATOM      7  C   UNL     1      12.282  33.123  26.826  1.00  0.00     0.053 C 
BRANCH   7   8
ATOM      8  C   UNL     1      12.317  33.291  28.326  1.00  0.00     0.041 C 
ATOM      9  O   UNL     1      13.318  33.429  29.012  1.00  0.00    -0.550 OA
ATOM     10  O   UNL     1      11.054  33.298  28.825  1.00  0.00    -0.550 OA
ENDBRANCH   7   8
ENDBRANCH   6   7
ENDBRANCH   5   6
ENDBRANCH   4   5
ENDBRANCH   3   4
ENDBRANCH   2   3
ENDBRANCH   1   2
BRANCH   1  11
ATOM     11  C   UNL     1       8.231  32.443  20.856  1.00  0.00    -0.031 C 
ATOM     12  C   UNL     1       7.396  31.773  20.049  1.00  0.00    -0.027 C 
BRANCH  12  13
ATOM     13  C   UNL     1       5.904  31.770  20.210  1.00  0.00     0.054 C 
BRANCH  13  14
ATOM     14  C   UNL     1       5.212  32.202  18.949  1.00  0.00    -0.027 C 
ATOM     15  C   UNL     1       5.034  31.398  17.889  1.00  0.00    -0.031 C 
BRANCH  15  16
ATOM     16  C   UNL     1       5.469  29.964  17.746  1.00  0.00     0.027 C 
BRANCH  16  17
ATOM     17  C   UNL     1       6.560  29.673  16.708  1.00  0.00     0.004 C 
BRANCH  17  18
ATOM     18  C   UNL     1       7.880  29.293  17.387  1.00  0.00     0.000 C 
BRANCH  18  19
ATOM     19  C   UNL     1       8.956  30.375  17.270  1.00  0.00    -0.003 C 
ATOM     20  C   UNL     1       8.539  31.555  16.406  1.00  0.00     0.004 C 
ENDBRANCH  18  19
ENDBRANCH  17  18
ENDBRANCH  16  17
ENDBRANCH  15  16
ENDBRANCH  13  14
ENDBRANCH  12  13
ENDBRANCH   1  11
TORSDOF 14
ENDMDL
MODEL 13
REMARK VINA RESULT:    -6.122      1.961      3.720
REMARK INTER + INTRA:         -13.112
REMARK INTER:                 -11.344
REMARK INTRA:                  -1.768
REMARK UNBOUND:                -1.980
REMARK SMILES CCCCC/C=C\C/C=C\CCCCCCCC(=O)[O-]
REMARK SMILES IDX 11 1 12 2 13 3 14 4 15 5 16 6 17 7 18 8 19 9 20 10 10 11
REMARK SMILES IDX 9 12 8 13 7 14 6 15 5 16 4 17 3 18 2 19 1 20
REMARK H PARENT
REMARK INDEX MAP 8 1 6 2 4 3 3 4 5 5 7 6 9 7 18 8 2 9 1 10 12 11 15 12 16 13
REMARK INDEX MAP 19 14 17 15 13 16 10 17 11 18 14 19 20 20
ROOT
ATOM      1  C   UNL     1       9.442  31.690  20.658  1.00  0.00     0.027 C 
ENDROOT
BRANCH   1   2
ATOM      2  C   UNL     1       9.708  32.261  22.056  1.00  0.00     0.004 C 
BRANCH   2   3
ATOM      3  C   UNL     1      11.144  32.035  22.540  1.00  0.00     0.000 C 
BRANCH   3   4
ATOM      4  C   UNL     1      11.299  32.163  24.059  1.00  0.00     0.000 C 
BRANCH   4   5
ATOM      5  C   UNL     1      10.131  32.892  24.729  1.00  0.00     0.000 C 
BRANCH   5   6
ATOM      6  C   UNL     1      10.623  33.808  25.855  1.00  0.00     0.006 C 
BRANCH   6   7
ATOM      7  C   UNL     1      11.073  33.027  27.089  1.00  0.00     0.053 C 
BRANCH   7   8
ATOM      8  C   UNL     1      12.431  33.448  27.596  1.00  0.00     0.041 C 
ATOM      9  O   UNL     1      13.123  32.836  28.395  1.00  0.00    -0.550 OA
ATOM     10  O   UNL     1      12.807  34.613  27.010  1.00  0.00    -0.550 OA
ENDBRANCH   7   8
ENDBRANCH   6   7
ENDBRANCH   5   6
ENDBRANCH   4   5
ENDBRANCH   3   4
ENDBRANCH   2   3
ENDBRANCH   1   2
BRANCH   1  11
ATOM     11  C   UNL     1      10.627  31.802  19.741  1.00  0.00    -0.031 C 
ATOM     12  C   UNL     1      10.599  31.460  18.443  1.00  0.00    -0.027 C 
BRANCH  12  13
ATOM     13  C   UNL     1       9.381  30.926  17.749  1.00  0.00     0.054 C 
BRANCH  13  14
ATOM     14  C   UNL     1       9.089  31.686  16.486  1.00  0.00    -0.027 C 
ATOM     15  C   UNL     1       8.205  32.694  16.416  1.00  0.00    -0.031 C 
BRANCH  15  16
ATOM     16  C   UNL     1       7.359  33.247  17.531  1.00  0.00     0.027 C 
BRANCH  16  17
ATOM     17  C   UNL     1       5.953  32.657  17.690  1.00  0.00     0.004 C 
BRANCH  17  18
ATOM     18  C   UNL     1       5.856  31.795  18.953  1.00  0.00     0.000 C 
BRANCH  18  19
ATOM     19  C   UNL     1       5.907  30.293  18.666  1.00  0.00    -0.003 C 
ATOM     20  C   UNL     1       5.599  29.939  17.220  1.00  0.00     0.004 C 
ENDBRANCH  18  19
ENDBRANCH  17  18
ENDBRANCH  16  17
ENDBRANCH  15  16
ENDBRANCH  13  14
ENDBRANCH  12  13
ENDBRANCH   1  11
TORSDOF 14
ENDMDL
MODEL 14
REMARK VINA RESULT:    -6.097      2.742      6.736
REMARK INTER + INTRA:         -13.067
REMARK INTER:                 -11.639
REMARK INTRA:                  -1.428
REMARK UNBOUND:                -1.980
REMARK SMILES CCCCC/C=C\C/C=C\CCCCCCCC(=O)[O-]
REMARK SMILES IDX 11 1 12 2 13 3 14 4 15 5 16 6 17 7 18 8 19 9 20 10 10 11
REMARK SMILES IDX 9 12 8 13 7 14 6 15 5 16 4 17 3 18 2 19 1 20
REMARK H PARENT
REMARK INDEX MAP 8 1 6 2 4 3 3 4 5 5 7 6 9 7 18 8 2 9 1 10 12 11 15 12 16 13
REMARK INDEX MAP 19 14 17 15 13 16 10 17 11 18 14 19 20 20
ROOT
ATOM      1  C   UNL     1       8.454  32.654  16.428  1.00  0.00     0.027 C 
ENDROOT
BRANCH   1   2
ATOM      2  C   UNL     1       7.601  33.333  17.506  1.00  0.00     0.004 C 
BRANCH   2   3
ATOM      3  C   UNL     1       6.111  33.392  17.152  1.00  0.00     0.000 C 
BRANCH   3   4
ATOM      4  C   UNL     1       5.251  32.441  17.991  1.00  0.00     0.000 C 
BRANCH   4   5
ATOM      5  C   UNL     1       4.528  31.380  17.156  1.00  0.00     0.000 C 
BRANCH   5   6
ATOM      6  C   UNL     1       5.042  29.973  17.485  1.00  0.00     0.006 C 
BRANCH   6   7
ATOM      7  C   UNL     1       6.424  29.703  16.892  1.00  0.00     0.053 C 
BRANCH   7   8
ATOM      8  C   UNL     1       7.485  29.474  17.941  1.00  0.00     0.041 C 
ATOM      9  O   UNL     1       7.458  29.881  19.093  1.00  0.00    -0.550 OA
ATOM     10  O   UNL     1       8.487  28.712  17.433  1.00  0.00    -0.550 OA
ENDBRANCH   7   8
ENDBRANCH   6   7
ENDBRANCH   5   6
ENDBRANCH   4   5
ENDBRANCH   3   4
ENDBRANCH   2   3
ENDBRANCH   1   2
BRANCH   1  11
ATOM     11  C   UNL     1       9.890  33.094  16.449  1.00  0.00    -0.031 C 
ATOM     12  C   UNL     1      10.816  32.573  17.268  1.00  0.00    -0.027 C 
BRANCH  12  13
ATOM     13  C   UNL     1      10.533  31.487  18.262  1.00  0.00     0.054 C 
BRANCH  13  14
ATOM     14  C   UNL     1      11.520  31.505  19.395  1.00  0.00    -0.027 C 
ATOM     15  C   UNL     1      11.169  31.667  20.681  1.00  0.00    -0.031 C 
BRANCH  15  16
ATOM     16  C   UNL     1       9.782  31.857  21.232  1.00  0.00     0.027 C 
BRANCH  16  17
ATOM     17  C   UNL     1       9.664  32.608  22.564  1.00  0.00     0.004 C 
BRANCH  17  18
ATOM     18  C   UNL     1      10.725  32.132  23.561  1.00  0.00     0.000 C 
BRANCH  18  19
ATOM     19  C   UNL     1      10.609  32.798  24.934  1.00  0.00    -0.003 C 
ATOM     20  C   UNL     1      11.953  33.081  25.587  1.00  0.00     0.004 C 
ENDBRANCH  18  19
ENDBRANCH  17  18
ENDBRANCH  16  17
ENDBRANCH  15  16
ENDBRANCH  13  14
ENDBRANCH  12  13
ENDBRANCH   1  11
TORSDOF 14
ENDMDL
MODEL 15
REMARK VINA RESULT:    -6.038      2.518      4.843
REMARK INTER + INTRA:         -12.959
REMARK INTER:                 -11.616
REMARK INTRA:                  -1.343
REMARK UNBOUND:                -1.980
REMARK SMILES CCCCC/C=C\C/C=C\CCCCCCCC(=O)[O-]
REMARK SMILES IDX 11 1 12 2 13 3 14 4 15 5 16 6 17 7 18 8 19 9 20 10 10 11
REMARK SMILES IDX 9 12 8 13 7 14 6 15 5 16 4 17 3 18 2 19 1 20
REMARK H PARENT
REMARK INDEX MAP 8 1 6 2 4 3 3 4 5 5 7 6 9 7 18 8 2 9 1 10 12 11 15 12 16 13
REMARK INDEX MAP 19 14 17 15 13 16 10 17 11 18 14 19 20 20
ROOT
ATOM      1  C   UNL     1      11.275  31.435  21.645  1.00  0.00     0.027 C 
ENDROOT
BRANCH   1   2
ATOM      2  C   UNL     1      11.591  32.085  22.997  1.00  0.00     0.004 C 
BRANCH   2   3
ATOM      3  C   UNL     1      10.346  32.341  23.852  1.00  0.00     0.000 C 
BRANCH   3   4
ATOM      4  C   UNL     1      10.666  32.952  25.221  1.00  0.00     0.000 C 
BRANCH   4   5
ATOM      5  C   UNL     1      12.152  32.888  25.581  1.00  0.00     0.000 C 
BRANCH   5   6
ATOM      6  C   UNL     1      12.405  33.453  26.984  1.00  0.00     0.006 C 
BRANCH   6   7
ATOM      7  C   UNL     1      12.090  34.945  27.078  1.00  0.00     0.053 C 
BRANCH   7   8
ATOM      8  C   UNL     1      13.041  35.697  27.978  1.00  0.00     0.041 C 
ATOM      9  O   UNL     1      13.741  36.644  27.655  1.00  0.00    -0.550 OA
ATOM     10  O   UNL     1      12.993  35.190  29.236  1.00  0.00    -0.550 OA
ENDBRANCH   7   8
ENDBRANCH   6   7
ENDBRANCH   5   6
ENDBRANCH   4   5
ENDBRANCH   3   4
ENDBRANCH   2   3
ENDBRANCH   1   2
BRANCH   1  11
ATOM     11  C   UNL     1       9.876  31.708  21.172  1.00  0.00    -0.031 C 
ATOM     12  C   UNL     1       9.519  31.741  19.879  1.00  0.00    -0.027 C 
BRANCH  12  13
ATOM     13  C   UNL     1      10.473  31.506  18.746  1.00  0.00     0.054 C 
BRANCH  13  14
ATOM     14  C   UNL     1      10.763  32.777  17.998  1.00  0.00    -0.027 C 
ATOM     15  C   UNL     1       9.994  33.240  16.999  1.00  0.00    -0.031 C 
BRANCH  15  16
ATOM     16  C   UNL     1       8.744  32.614  16.443  1.00  0.00     0.027 C 
BRANCH  16  17
ATOM     17  C   UNL     1       7.409  33.118  17.006  1.00  0.00     0.004 C 
BRANCH  17  18
ATOM     18  C   UNL     1       6.676  32.009  17.765  1.00  0.00     0.000 C 
BRANCH  18  19
ATOM     19  C   UNL     1       7.082  30.601  17.322  1.00  0.00    -0.003 C 
ATOM     20  C   UNL     1       5.904  29.730  16.911  1.00  0.00     0.004 C 
ENDBRANCH  18  19
ENDBRANCH  17  18
ENDBRANCH  16  17
ENDBRANCH  15  16
ENDBRANCH  13  14
ENDBRANCH  12  13
ENDBRANCH   1  11
TORSDOF 14
ENDMDL
MODEL 16
REMARK VINA RESULT:    -6.018      4.560     10.120
REMARK INTER + INTRA:         -12.923
REMARK INTER:                 -11.583
REMARK INTRA:                  -1.340
REMARK UNBOUND:                -1.980
REMARK SMILES CCCCC/C=C\C/C=C\CCCCCCCC(=O)[O-]
REMARK SMILES IDX 11 1 12 2 13 3 14 4 15 5 16 6 17 7 18 8 19 9 20 10 10 11
REMARK SMILES IDX 9 12 8 13 7 14 6 15 5 16 4 17 3 18 2 19 1 20
REMARK H PARENT
REMARK INDEX MAP 8 1 6 2 4 3 3 4 5 5 7 6 9 7 18 8 2 9 1 10 12 11 15 12 16 13
REMARK INDEX MAP 19 14 17 15 13 16 10 17 11 18 14 19 20 20
ROOT
ATOM      1  C   UNL     1      12.041  32.178  23.473  1.00  0.00     0.027 C 
ENDROOT
BRANCH   1   2
ATOM      2  C   UNL     1      11.849  31.599  22.067  1.00  0.00     0.004 C 
BRANCH   2   3
ATOM      3  C   UNL     1      10.395  31.228  21.757  1.00  0.00     0.000 C 
BRANCH   3   4
ATOM      4  C   UNL     1       9.878  31.842  20.451  1.00  0.00     0.000 C 
BRANCH   4   5
ATOM      5  C   UNL     1       8.369  32.100  20.459  1.00  0.00     0.000 C 
BRANCH   5   6
ATOM      6  C   UNL     1       7.663  31.284  19.369  1.00  0.00     0.006 C 
BRANCH   6   7
ATOM      7  C   UNL     1       8.079  31.707  17.961  1.00  0.00     0.053 C 
BRANCH   7   8
ATOM      8  C   UNL     1       8.519  30.548  17.099  1.00  0.00     0.041 C 
ATOM      9  O   UNL     1       8.282  30.405  15.910  1.00  0.00    -0.550 OA
ATOM     10  O   UNL     1       9.258  29.676  17.831  1.00  0.00    -0.550 OA
ENDBRANCH   7   8
ENDBRANCH   6   7
ENDBRANCH   5   6
ENDBRANCH   4   5
ENDBRANCH   3   4
ENDBRANCH   2   3
ENDBRANCH   1   2
BRANCH   1  11
ATOM     11  C   UNL     1      10.747  32.546  24.141  1.00  0.00    -0.031 C 
ATOM     12  C   UNL     1      10.655  32.945  25.419  1.00  0.00    -0.027 C 
BRANCH  12  13
ATOM     13  C   UNL     1      11.834  33.075  26.338  1.00  0.00     0.054 C 
BRANCH  13  14
ATOM     14  C   UNL     1      12.221  34.512  26.538  1.00  0.00    -0.027 C 
ATOM     15  C   UNL     1      11.804  35.254  27.576  1.00  0.00    -0.031 C 
BRANCH  15  16
ATOM     16  C   UNL     1      10.902  34.825  28.702  1.00  0.00     0.027 C 
BRANCH  16  17
ATOM     17  C   UNL     1      11.583  34.383  30.003  1.00  0.00     0.004 C 
BRANCH  17  18
ATOM     18  C   UNL     1      12.816  35.242  30.299  1.00  0.00     0.000 C 
BRANCH  18  19
ATOM     19  C   UNL     1      14.079  34.418  30.563  1.00  0.00    -0.003 C 
ATOM     20  C   UNL     1      14.165  33.153  29.723  1.00  0.00     0.004 C 
ENDBRANCH  18  19
ENDBRANCH  17  18
ENDBRANCH  16  17
ENDBRANCH  15  16
ENDBRANCH  13  14
ENDBRANCH  12  13
ENDBRANCH   1  11
TORSDOF 14
ENDMDL
MODEL 17
REMARK VINA RESULT:    -6.003      3.894      8.934
REMARK INTER + INTRA:         -12.895
REMARK INTER:                 -11.770
REMARK INTRA:                  -1.125
REMARK UNBOUND:                -1.980
REMARK SMILES CCCCC/C=C\C/C=C\CCCCCCCC(=O)[O-]
REMARK SMILES IDX 11 1 12 2 13 3 14 4 15 5 16 6 17 7 18 8 19 9 20 10 10 11
REMARK SMILES IDX 9 12 8 13 7 14 6 15 5 16 4 17 3 18 2 19 1 20
REMARK H PARENT
REMARK INDEX MAP 8 1 6 2 4 3 3 4 5 5 7 6 9 7 18 8 2 9 1 10 12 11 15 12 16 13
REMARK INDEX MAP 19 14 17 15 13 16 10 17 11 18 14 19 20 20
ROOT
ATOM      1  C   UNL     1       9.883  31.536  21.133  1.00  0.00     0.027 C 
ENDROOT
BRANCH   1   2
ATOM      2  C   UNL     1       9.431  31.474  19.670  1.00  0.00     0.004 C 
BRANCH   2   3
ATOM      3  C   UNL     1       8.228  32.375  19.368  1.00  0.00     0.000 C 
BRANCH   3   4
ATOM      4  C   UNL     1       6.909  31.833  19.927  1.00  0.00     0.000 C 
BRANCH   4   5
ATOM      5  C   UNL     1       5.803  31.722  18.874  1.00  0.00     0.000 C 
BRANCH   5   6
ATOM      6  C   UNL     1       5.559  30.261  18.480  1.00  0.00     0.006 C 
BRANCH   6   7
ATOM      7  C   UNL     1       5.977  29.967  17.040  1.00  0.00     0.053 C 
BRANCH   7   8
ATOM      8  C   UNL     1       7.458  29.715  16.892  1.00  0.00     0.041 C 
ATOM      9  O   UNL     1       8.198  30.234  16.071  1.00  0.00    -0.550 OA
ATOM     10  O   UNL     1       7.879  28.836  17.837  1.00  0.00    -0.550 OA
ENDBRANCH   7   8
ENDBRANCH   6   7
ENDBRANCH   5   6
ENDBRANCH   4   5
ENDBRANCH   3   4
ENDBRANCH   2   3
ENDBRANCH   1   2
BRANCH   1  11
ATOM     11  C   UNL     1      11.374  31.448  21.293  1.00  0.00    -0.031 C 
ATOM     12  C   UNL     1      12.019  31.735  22.434  1.00  0.00    -0.027 C 
BRANCH  12  13
ATOM     13  C   UNL     1      11.330  32.178  23.691  1.00  0.00     0.054 C 
BRANCH  13  14
ATOM     14  C   UNL     1      12.314  32.431  24.798  1.00  0.00    -0.027 C 
ATOM     15  C   UNL     1      12.043  33.193  25.870  1.00  0.00    -0.031 C 
BRANCH  15  16
ATOM     16  C   UNL     1      10.761  33.921  26.173  1.00  0.00     0.027 C 
BRANCH  16  17
ATOM     17  C   UNL     1      10.860  35.139  27.100  1.00  0.00     0.004 C 
BRANCH  17  18
ATOM     18  C   UNL     1      12.316  35.429  27.476  1.00  0.00     0.000 C 
BRANCH  18  19
ATOM     19  C   UNL     1      12.577  35.363  28.982  1.00  0.00    -0.003 C 
ATOM     20  C   UNL     1      11.400  34.823  29.780  1.00  0.00     0.004 C 
ENDBRANCH  18  19
ENDBRANCH  17  18
ENDBRANCH  16  17
ENDBRANCH  15  16
ENDBRANCH  13  14
ENDBRANCH  12  13
ENDBRANCH   1  11
TORSDOF 14
ENDMDL
MODEL 18
REMARK VINA RESULT:    -5.928      3.999      9.121
REMARK INTER + INTRA:         -12.760
REMARK INTER:                 -11.552
REMARK INTRA:                  -1.209
REMARK UNBOUND:                -1.980
REMARK SMILES CCCCC/C=C\C/C=C\CCCCCCCC(=O)[O-]
REMARK SMILES IDX 11 1 12 2 13 3 14 4 15 5 16 6 17 7 18 8 19 9 20 10 10 11
REMARK SMILES IDX 9 12 8 13 7 14 6 15 5 16 4 17 3 18 2 19 1 20
REMARK H PARENT
REMARK INDEX MAP 8 1 6 2 4 3 3 4 5 5 7 6 9 7 18 8 2 9 1 10 12 11 15 12 16 13
REMARK INDEX MAP 19 14 17 15 13 16 10 17 11 18 14 19 20 20
ROOT
ATOM      1  C   UNL     1       9.256  32.217  21.442  1.00  0.00     0.027 C 
ENDROOT
BRANCH   1   2
ATOM      2  C   UNL     1       8.385  31.602  20.340  1.00  0.00     0.004 C 
BRANCH   2   3
ATOM      3  C   UNL     1       8.816  32.011  18.927  1.00  0.00     0.000 C 
BRANCH   3   4
ATOM      4  C   UNL     1       9.352  30.842  18.095  1.00  0.00     0.000 C 
BRANCH   4   5
ATOM      5  C   UNL     1       8.438  30.458  16.929  1.00  0.00     0.000 C 
BRANCH   5   6
ATOM      6  C   UNL     1       7.394  29.422  17.362  1.00  0.00     0.006 C 
BRANCH   6   7
ATOM      7  C   UNL     1       5.963  29.905  17.133  1.00  0.00     0.053 C 
BRANCH   7   8
ATOM      8  C   UNL     1       5.433  30.748  18.268  1.00  0.00     0.041 C 
ATOM      9  O   UNL     1       5.146  30.350  19.387  1.00  0.00    -0.550 OA
ATOM     10  O   UNL     1       5.342  32.046  17.883  1.00  0.00    -0.550 OA
ENDBRANCH   7   8
ENDBRANCH   6   7
ENDBRANCH   5   6
ENDBRANCH   4   5
ENDBRANCH   3   4
ENDBRANCH   2   3
ENDBRANCH   1   2
BRANCH   1  11
ATOM     11  C   UNL     1      10.690  31.773  21.375  1.00  0.00    -0.031 C 
ATOM     12  C   UNL     1      11.511  31.749  22.436  1.00  0.00    -0.027 C 
BRANCH  12  13
ATOM     13  C   UNL     1      11.099  32.159  23.819  1.00  0.00     0.054 C 
BRANCH  13  14
ATOM     14  C   UNL     1      12.290  32.479  24.676  1.00  0.00    -0.027 C 
ATOM     15  C   UNL     1      12.236  33.284  25.750  1.00  0.00    -0.031 C 
BRANCH  15  16
ATOM     16  C   UNL     1      11.030  34.002  26.293  1.00  0.00     0.027 C 
BRANCH  16  17
ATOM     17  C   UNL     1      11.293  35.146  27.279  1.00  0.00     0.004 C 
BRANCH  17  18
ATOM     18  C   UNL     1      12.781  35.243  27.628  1.00  0.00     0.000 C 
BRANCH  18  19
ATOM     19  C   UNL     1      13.079  34.946  29.099  1.00  0.00    -0.003 C 
ATOM     20  C   UNL     1      13.457  33.496  29.362  1.00  0.00     0.004 C 
ENDBRANCH  18  19
ENDBRANCH  17  18
ENDBRANCH  16  17
ENDBRANCH  15  16
ENDBRANCH  13  14
ENDBRANCH  12  13
ENDBRANCH   1  11
TORSDOF 14
ENDMDL
MODEL 19
REMARK VINA RESULT:    -5.912      3.664      6.481
REMARK INTER + INTRA:         -12.731
REMARK INTER:                 -11.853
REMARK INTRA:                  -0.878
REMARK UNBOUND:                -1.980
REMARK SMILES CCCCC/C=C\C/C=C\CCCCCCCC(=O)[O-]
REMARK SMILES IDX 11 1 12 2 13 3 14 4 15 5 16 6 17 7 18 8 19 9 20 10 10 11
REMARK SMILES IDX 9 12 8 13 7 14 6 15 5 16 4 17 3 18 2 19 1 20
REMARK H PARENT
REMARK INDEX MAP 8 1 6 2 4 3 3 4 5 5 7 6 9 7 18 8 2 9 1 10 12 11 15 12 16 13
REMARK INDEX MAP 19 14 17 15 13 16 10 17 11 18 14 19 20 20
ROOT
ATOM      1  C   UNL     1      10.267  32.625  24.400  1.00  0.00     0.027 C 
ENDROOT
BRANCH   1   2
ATOM      2  C   UNL     1      10.465  33.295  25.765  1.00  0.00     0.004 C 
BRANCH   2   3
ATOM      3  C   UNL     1      11.891  33.153  26.309  1.00  0.00     0.000 C 
BRANCH   3   4
ATOM      4  C   UNL     1      12.523  34.491  26.707  1.00  0.00     0.000 C 
BRANCH   4   5
ATOM      5  C   UNL     1      12.009  35.030  28.045  1.00  0.00     0.000 C 
BRANCH   5   6
ATOM      6  C   UNL     1      11.755  33.891  29.039  1.00  0.00     0.006 C 
BRANCH   6   7
ATOM      7  C   UNL     1      12.384  34.159  30.406  1.00  0.00     0.053 C 
BRANCH   7   8
ATOM      8  C   UNL     1      13.855  33.823  30.458  1.00  0.00     0.041 C 
ATOM      9  O   UNL     1      14.397  32.876  29.910  1.00  0.00    -0.550 OA
ATOM     10  O   UNL     1      14.521  34.754  31.188  1.00  0.00    -0.550 OA
ENDBRANCH   7   8
ENDBRANCH   6   7
ENDBRANCH   5   6
ENDBRANCH   4   5
ENDBRANCH   3   4
ENDBRANCH   2   3
ENDBRANCH   1   2
BRANCH   1  11
ATOM     11  C   UNL     1      11.559  32.222  23.749  1.00  0.00    -0.031 C 
ATOM     12  C   UNL     1      11.651  31.783  22.484  1.00  0.00    -0.027 C 
BRANCH  12  13
ATOM     13  C   UNL     1      10.474  31.643  21.564  1.00  0.00     0.054 C 
BRANCH  13  14
ATOM     14  C   UNL     1      10.895  31.677  20.122  1.00  0.00    -0.027 C 
ATOM     15  C   UNL     1      10.028  31.709  19.098  1.00  0.00    -0.031 C 
BRANCH  15  16
ATOM     16  C   UNL     1       8.525  31.714  19.173  1.00  0.00     0.027 C 
BRANCH  16  17
ATOM     17  C   UNL     1       7.768  31.937  17.858  1.00  0.00     0.004 C 
BRANCH  17  18
ATOM     18  C   UNL     1       8.086  30.833  16.844  1.00  0.00     0.000 C 
BRANCH  18  19
ATOM     19  C   UNL     1       7.230  29.578  17.025  1.00  0.00    -0.003 C 
ATOM     20  C   UNL     1       5.735  29.857  17.019  1.00  0.00     0.004 C 
ENDBRANCH  18  19
ENDBRANCH  17  18
ENDBRANCH  16  17
ENDBRANCH  15  16
ENDBRANCH  13  14
ENDBRANCH  12  13
ENDBRANCH   1  11
TORSDOF 14
ENDMDL
MODEL 20
REMARK VINA RESULT:    -5.851      3.537      5.950
REMARK INTER + INTRA:         -12.620
REMARK INTER:                 -11.838
REMARK INTRA:                  -0.782
REMARK UNBOUND:                -1.980
REMARK SMILES CCCCC/C=C\C/C=C\CCCCCCCC(=O)[O-]
REMARK SMILES IDX 11 1 12 2 13 3 14 4 15 5 16 6 17 7 18 8 19 9 20 10 10 11
REMARK SMILES IDX 9 12 8 13 7 14 6 15 5 16 4 17 3 18 2 19 1 20
REMARK H PARENT
REMARK INDEX MAP 8 1 6 2 4 3 3 4 5 5 7 6 9 7 18 8 2 9 1 10 12 11 15 12 16 13
REMARK INDEX MAP 19 14 17 15 13 16 10 17 11 18 14 19 20 20
ROOT
ATOM      1  C   UNL     1      10.937  32.209  23.997  1.00  0.00     0.027 C 
ENDROOT
BRANCH   1   2
ATOM      2  C   UNL     1      11.560  32.932  25.197  1.00  0.00     0.004 C 
BRANCH   2   3
ATOM      3  C   UNL     1      10.521  33.496  26.172  1.00  0.00     0.000 C 
BRANCH   3   4
ATOM      4  C   UNL     1      10.749  34.972  26.514  1.00  0.00     0.000 C 
BRANCH   4   5
ATOM      5  C   UNL     1      12.014  35.216  27.340  1.00  0.00     0.000 C 
BRANCH   5   6
ATOM      6  C   UNL     1      11.918  34.536  28.711  1.00  0.00     0.006 C 
BRANCH   6   7
ATOM      7  C   UNL     1      13.119  33.637  29.002  1.00  0.00     0.053 C 
BRANCH   7   8
ATOM      8  C   UNL     1      13.869  34.033  30.251  1.00  0.00     0.041 C 
ATOM      9  O   UNL     1      15.022  34.432  30.302  1.00  0.00    -0.550 OA
ATOM     10  O   UNL     1      13.063  33.912  31.337  1.00  0.00    -0.550 OA
ENDBRANCH   7   8
ENDBRANCH   6   7
ENDBRANCH   5   6
ENDBRANCH   4   5
ENDBRANCH   3   4
ENDBRANCH   2   3
ENDBRANCH   1   2
BRANCH   1  11
ATOM     11  C   UNL     1      11.945  31.819  22.955  1.00  0.00    -0.031 C 
ATOM     12  C   UNL     1      11.626  31.509  21.689  1.00  0.00    -0.027 C 
BRANCH  12  13
ATOM     13  C   UNL     1      10.223  31.516  21.158  1.00  0.00     0.054 C 
BRANCH  13  14
ATOM     14  C   UNL     1      10.201  31.637  19.661  1.00  0.00    -0.027 C 
ATOM     15  C   UNL     1       9.096  31.462  18.919  1.00  0.00    -0.031 C 
BRANCH  15  16
ATOM     16  C   UNL     1       7.713  31.122  19.407  1.00  0.00     0.027 C 
BRANCH  16  17
ATOM     17  C   UNL     1       6.941  30.062  18.612  1.00  0.00     0.004 C 
BRANCH  17  18
ATOM     18  C   UNL     1       5.516  30.531  18.306  1.00  0.00     0.000 C 
BRANCH  18  19
ATOM     19  C   UNL     1       5.345  32.049  18.396  1.00  0.00    -0.003 C 
ATOM     20  C   UNL     1       4.425  32.620  17.328  1.00  0.00     0.004 C 
ENDBRANCH  18  19
ENDBRANCH  17  18
ENDBRANCH  16  17
ENDBRANCH  15  16
ENDBRANCH  13  14
ENDBRANCH  12  13
ENDBRANCH   1  11
TORSDOF 14
ENDMDL
