MODEL 1
REMARK VINA RESULT:    -6.946      0.000      0.000
REMARK INTER + INTRA:         -14.650
REMARK INTER:                 -12.631
REMARK INTRA:                  -2.019
REMARK UNBOUND:                -2.019
REMARK SMILES CCCCC/C=C\C/C=C\CCCCCCCC(=O)[O-]
REMARK SMILES IDX 11 1 12 2 13 3 14 4 15 5 16 6 17 7 18 8 19 9 20 10 10 11
REMARK SMILES IDX 9 12 8 13 7 14 6 15 5 16 4 17 3 18 2 19 1 20
REMARK H PARENT
REMARK INDEX MAP 8 1 6 2 4 3 3 4 5 5 7 6 9 7 18 8 2 9 1 10 12 11 15 12 16 13
REMARK INDEX MAP 19 14 17 15 13 16 10 17 11 18 14 19 20 20
ROOT
ATOM      1  C   UNL     1       9.285  33.060  17.383  1.00  0.00     0.027 C 
ENDROOT
BRANCH   1   2
ATOM      2  C   UNL     1      10.721  32.739  17.811  1.00  0.00     0.004 C 
BRANCH   2   3
ATOM      3  C   UNL     1      10.801  31.919  19.102  1.00  0.00     0.000 C 
BRANCH   3   4
ATOM      4  C   UNL     1       9.447  31.759  19.803  1.00  0.00     0.000 C 
BRANCH   4   5
ATOM      5  C   UNL     1       9.570  31.491  21.305  1.00  0.00     0.000 C 
BRANCH   5   6
ATOM      6  C   UNL     1      11.000  31.744  21.797  1.00  0.00     0.006 C 
BRANCH   6   7
ATOM      7  C   UNL     1      11.048  32.136  23.274  1.00  0.00     0.053 C 
BRANCH   7   8
ATOM      8  C   UNL     1      12.446  32.134  23.843  1.00  0.00     0.041 C 
ATOM      9  O   UNL     1      12.756  32.401  24.994  1.00  0.00    -0.550 OA
ATOM     10  O   UNL     1      13.338  31.757  22.891  1.00  0.00    -0.550 OA
ENDBRANCH   7   8
ENDBRANCH   6   7
ENDBRANCH   5   6
ENDBRANCH   4   5
ENDBRANCH   3   4
ENDBRANCH   2   3
ENDBRANCH   1   2
BRANCH   1  11
ATOM     11  C   UNL     1       8.949  32.548  16.012  1.00  0.00    -0.031 C 
ATOM     12  C   UNL     1       8.559  31.289  15.762  1.00  0.00    -0.027 C 
BRANCH  12  13
ATOM     13  C   UNL     1       8.407  30.238  16.822  1.00  0.00     0.054 C 
BRANCH  13  14
ATOM     14  C   UNL     1       7.032  29.633  16.806  1.00  0.00    -0.027 C 
ATOM     15  C   UNL     1       6.058  29.985  17.659  1.00  0.00    -0.031 C 
BRANCH  15  16
ATOM     16  C   UNL     1       6.134  31.009  18.760  1.00  0.00     0.027 C 
BRANCH  16  17
ATOM     17  C   UNL     1       5.048  32.092  18.773  1.00  0.00     0.004 C 
BRANCH  17  18
ATOM     18  C   UNL     1       4.668  32.508  17.349  1.00  0.00     0.000 C 
BRANCH  18  19
ATOM     19  C   UNL     1       5.471  33.704  16.832  1.00  0.00    -0.003 C 
ATOM     20  C   UNL     1       4.637  34.698  16.038  1.00  0.00     0.004 C 
ENDBRANCH  18  19
ENDBRANCH  17  18
ENDBRANCH  16  17
ENDBRANCH  15  16
ENDBRANCH  13  14
ENDBRANCH  12  13
ENDBRANCH   1  11
TORSDOF 14
ENDMDL
MODEL 2
REMARK VINA RESULT:    -6.352      1.200      3.142
REMARK INTER + INTRA:         -13.568
REMARK INTER:                 -11.473
REMARK INTRA:                  -2.095
REMARK UNBOUND:                -2.019
REMARK SMILES CCCCC/C=C\C/C=C\CCCCCCCC(=O)[O-]
REMARK SMILES IDX 11 1 12 2 13 3 14 4 15 5 16 6 17 7 18 8 19 9 20 10 10 11
REMARK SMILES IDX 9 12 8 13 7 14 6 15 5 16 4 17 3 18 2 19 1 20
REMARK H PARENT
REMARK INDEX MAP 8 1 6 2 4 3 3 4 5 5 7 6 9 7 18 8 2 9 1 10 12 11 15 12 16 13
REMARK INDEX MAP 19 14 17 15 13 16 10 17 11 18 14 19 20 20
ROOT
ATOM      1  C   UNL     1       5.632  31.638  20.486  1.00  0.00     0.027 C 
ENDROOT
BRANCH   1   2
ATOM      2  C   UNL     1       7.128  31.967  20.528  1.00  0.00     0.004 C 
BRANCH   2   3
ATOM      3  C   UNL     1       7.488  33.021  21.582  1.00  0.00     0.000 C 
BRANCH   3   4
ATOM      4  C   UNL     1       8.972  33.014  21.963  1.00  0.00     0.000 C 
BRANCH   4   5
ATOM      5  C   UNL     1       9.789  31.965  21.204  1.00  0.00     0.000 C 
BRANCH   5   6
ATOM      6  C   UNL     1      10.959  31.455  22.054  1.00  0.00     0.006 C 
BRANCH   6   7
ATOM      7  C   UNL     1      10.930  32.007  23.478  1.00  0.00     0.053 C 
BRANCH   7   8
ATOM      8  C   UNL     1      12.307  32.235  24.055  1.00  0.00     0.041 C 
ATOM      9  O   UNL     1      12.558  32.667  25.169  1.00  0.00    -0.550 OA
ATOM     10  O   UNL     1      13.256  31.860  23.159  1.00  0.00    -0.550 OA
ENDBRANCH   7   8
ENDBRANCH   6   7
ENDBRANCH   5   6
ENDBRANCH   4   5
ENDBRANCH   3   4
ENDBRANCH   2   3
ENDBRANCH   1   2
BRANCH   1  11
ATOM     11  C   UNL     1       5.007  31.903  19.145  1.00  0.00    -0.031 C 
ATOM     12  C   UNL     1       5.159  31.099  18.082  1.00  0.00    -0.027 C 
BRANCH  12  13
ATOM     13  C   UNL     1       5.969  29.837  18.100  1.00  0.00     0.054 C 
BRANCH  13  14
ATOM     14  C   UNL     1       6.761  29.672  16.834  1.00  0.00    -0.027 C 
ATOM     15  C   UNL     1       8.085  29.880  16.756  1.00  0.00    -0.031 C 
BRANCH  15  16
ATOM     16  C   UNL     1       9.010  30.304  17.865  1.00  0.00     0.027 C 
BRANCH  16  17
ATOM     17  C   UNL     1       9.899  31.525  17.596  1.00  0.00     0.004 C 
BRANCH  17  18
ATOM     18  C   UNL     1       9.168  32.560  16.735  1.00  0.00     0.000 C 
BRANCH  18  19
ATOM     19  C   UNL     1       8.232  33.465  17.540  1.00  0.00    -0.003 C 
ATOM     20  C   UNL     1       6.860  33.634  16.908  1.00  0.00     0.004 C 
ENDBRANCH  18  19
ENDBRANCH  17  18
ENDBRANCH  16  17
ENDBRANCH  15  16
ENDBRANCH  13  14
ENDBRANCH  12  13
ENDBRANCH   1  11
TORSDOF 14
ENDMDL
MODEL 3
REMARK VINA RESULT:    -6.294      1.726      3.552
REMARK INTER + INTRA:         -13.464
REMARK INTER:                 -11.590
REMARK INTRA:                  -1.874
REMARK UNBOUND:                -2.019
REMARK SMILES CCCCC/C=C\C/C=C\CCCCCCCC(=O)[O-]
REMARK SMILES IDX 11 1 12 2 13 3 14 4 15 5 16 6 17 7 18 8 19 9 20 10 10 11
REMARK SMILES IDX 9 12 8 13 7 14 6 15 5 16 4 17 3 18 2 19 1 20
REMARK H PARENT
REMARK INDEX MAP 8 1 6 2 4 3 3 4 5 5 7 6 9 7 18 8 2 9 1 10 12 11 15 12 16 13
REMARK INDEX MAP 19 14 17 15 13 16 10 17 11 18 14 19 20 20
ROOT
ATOM      1  C   UNL     1       7.714  32.261  20.143  1.00  0.00     0.027 C 
ENDROOT
BRANCH   1   2
ATOM      2  C   UNL     1       8.772  31.234  20.562  1.00  0.00     0.004 C 
BRANCH   2   3
ATOM      3  C   UNL     1      10.176  31.833  20.700  1.00  0.00     0.000 C 
BRANCH   3   4
ATOM      4  C   UNL     1      10.853  31.492  22.032  1.00  0.00     0.000 C 
BRANCH   4   5
ATOM      5  C   UNL     1      10.405  32.392  23.187  1.00  0.00     0.000 C 
BRANCH   5   6
ATOM      6  C   UNL     1      11.437  32.391  24.321  1.00  0.00     0.006 C 
BRANCH   6   7
ATOM      7  C   UNL     1      10.893  33.014  25.606  1.00  0.00     0.053 C 
BRANCH   7   8
ATOM      8  C   UNL     1      11.969  33.625  26.471  1.00  0.00     0.041 C 
ATOM      9  O   UNL     1      12.273  34.808  26.514  1.00  0.00    -0.550 OA
ATOM     10  O   UNL     1      12.552  32.669  27.237  1.00  0.00    -0.550 OA
ENDBRANCH   7   8
ENDBRANCH   6   7
ENDBRANCH   5   6
ENDBRANCH   4   5
ENDBRANCH   3   4
ENDBRANCH   2   3
ENDBRANCH   1   2
BRANCH   1  11
ATOM     11  C   UNL     1       6.325  31.886  20.576  1.00  0.00    -0.031 C 
ATOM     12  C   UNL     1       5.274  31.835  19.744  1.00  0.00    -0.027 C 
BRANCH  12  13
ATOM     13  C   UNL     1       5.356  32.145  18.278  1.00  0.00     0.054 C 
BRANCH  13  14
ATOM     14  C   UNL     1       4.933  30.971  17.442  1.00  0.00    -0.027 C 
ATOM     15  C   UNL     1       5.703  29.890  17.241  1.00  0.00    -0.031 C 
BRANCH  15  16
ATOM     16  C   UNL     1       7.085  29.638  17.781  1.00  0.00     0.027 C 
BRANCH  16  17
ATOM     17  C   UNL     1       8.244  29.716  16.780  1.00  0.00     0.004 C 
BRANCH  17  18
ATOM     18  C   UNL     1       8.424  31.143  16.254  1.00  0.00     0.000 C 
BRANCH  18  19
ATOM     19  C   UNL     1       9.536  31.916  16.967  1.00  0.00    -0.003 C 
ATOM     20  C   UNL     1       9.261  33.407  17.083  1.00  0.00     0.004 C 
ENDBRANCH  18  19
ENDBRANCH  17  18
ENDBRANCH  16  17
ENDBRANCH  15  16
ENDBRANCH  13  14
ENDBRANCH  12  13
ENDBRANCH   1  11
TORSDOF 14
ENDMDL
MODEL 4
REMARK VINA RESULT:    -6.291      2.756      3.946
REMARK INTER + INTRA:         -13.459
REMARK INTER:                 -10.935
REMARK INTRA:                  -2.524
REMARK UNBOUND:                -2.019
REMARK SMILES CCCCC/C=C\C/C=C\CCCCCCCC(=O)[O-]
REMARK SMILES IDX 11 1 12 2 13 3 14 4 15 5 16 6 17 7 18 8 19 9 20 10 10 11
REMARK SMILES IDX 9 12 8 13 7 14 6 15 5 16 4 17 3 18 2 19 1 20
REMARK H PARENT
REMARK INDEX MAP 8 1 6 2 4 3 3 4 5 5 7 6 9 7 18 8 2 9 1 10 12 11 15 12 16 13
REMARK INDEX MAP 19 14 17 15 13 16 10 17 11 18 14 19 20 20
ROOT
ATOM      1  C   UNL     1      10.542  32.817  17.788  1.00  0.00     0.027 C 
ENDROOT
BRANCH   1   2
ATOM      2  C   UNL     1      10.880  31.482  18.463  1.00  0.00     0.004 C 
BRANCH   2   3
ATOM      3  C   UNL     1      11.448  31.645  19.877  1.00  0.00     0.000 C 
BRANCH   3   4
ATOM      4  C   UNL     1      10.368  31.843  20.946  1.00  0.00     0.000 C 
BRANCH   4   5
ATOM      5  C   UNL     1       8.997  31.306  20.528  1.00  0.00     0.000 C 
BRANCH   5   6
ATOM      6  C   UNL     1       7.935  32.412  20.566  1.00  0.00     0.006 C 
BRANCH   6   7
ATOM      7  C   UNL     1       7.778  33.023  21.958  1.00  0.00     0.053 C 
BRANCH   7   8
ATOM      8  C   UNL     1       6.339  33.123  22.403  1.00  0.00     0.041 C 
ATOM      9  O   UNL     1       5.906  33.854  23.281  1.00  0.00    -0.550 OA
ATOM     10  O   UNL     1       5.562  32.294  21.661  1.00  0.00    -0.550 OA
ENDBRANCH   7   8
ENDBRANCH   6   7
ENDBRANCH   5   6
ENDBRANCH   4   5
ENDBRANCH   3   4
ENDBRANCH   2   3
ENDBRANCH   1   2
BRANCH   1  11
ATOM     11  C   UNL     1       9.816  32.650  16.483  1.00  0.00    -0.031 C 
ATOM     12  C   UNL     1       8.505  32.886  16.325  1.00  0.00    -0.027 C 
BRANCH  12  13
ATOM     13  C   UNL     1       7.602  33.346  17.431  1.00  0.00     0.054 C 
BRANCH  13  14
ATOM     14  C   UNL     1       6.226  33.668  16.921  1.00  0.00    -0.027 C 
ATOM     15  C   UNL     1       5.127  32.981  17.271  1.00  0.00    -0.031 C 
BRANCH  15  16
ATOM     16  C   UNL     1       5.044  31.801  18.201  1.00  0.00     0.027 C 
BRANCH  16  17
ATOM     17  C   UNL     1       4.798  30.430  17.558  1.00  0.00     0.004 C 
BRANCH  17  18
ATOM     18  C   UNL     1       6.062  29.910  16.866  1.00  0.00     0.000 C 
BRANCH  18  19
ATOM     19  C   UNL     1       7.195  29.583  17.840  1.00  0.00    -0.003 C 
ATOM     20  C   UNL     1       8.494  29.192  17.152  1.00  0.00     0.004 C 
ENDBRANCH  18  19
ENDBRANCH  17  18
ENDBRANCH  16  17
ENDBRANCH  15  16
ENDBRANCH  13  14
ENDBRANCH  12  13
ENDBRANCH   1  11
TORSDOF 14
ENDMDL
MODEL 5
REMARK VINA RESULT:    -6.254      1.528      2.382
REMARK INTER + INTRA:         -13.391
REMARK INTER:                 -11.301
REMARK INTRA:                  -2.089
REMARK UNBOUND:                -2.019
REMARK SMILES CCCCC/C=C\C/C=C\CCCCCCCC(=O)[O-]
REMARK SMILES IDX 11 1 12 2 13 3 14 4 15 5 16 6 17 7 18 8 19 9 20 10 10 11
REMARK SMILES IDX 9 12 8 13 7 14 6 15 5 16 4 17 3 18 2 19 1 20
REMARK H PARENT
REMARK INDEX MAP 8 1 6 2 4 3 3 4 5 5 7 6 9 7 18 8 2 9 1 10 12 11 15 12 16 13
REMARK INDEX MAP 19 14 17 15 13 16 10 17 11 18 14 19 20 20
ROOT
ATOM      1  C   UNL     1       8.420  32.747  17.364  1.00  0.00     0.027 C 
ENDROOT
BRANCH   1   2
ATOM      2  C   UNL     1       9.280  32.892  18.624  1.00  0.00     0.004 C 
BRANCH   2   3
ATOM      3  C   UNL     1      10.382  31.831  18.731  1.00  0.00     0.000 C 
BRANCH   3   4
ATOM      4  C   UNL     1      10.919  31.658  20.156  1.00  0.00     0.000 C 
BRANCH   4   5
ATOM      5  C   UNL     1       9.823  31.673  21.224  1.00  0.00     0.000 C 
BRANCH   5   6
ATOM      6  C   UNL     1      10.185  32.622  22.374  1.00  0.00     0.006 C 
BRANCH   6   7
ATOM      7  C   UNL     1      10.769  31.884  23.578  1.00  0.00     0.053 C 
BRANCH   7   8
ATOM      8  C   UNL     1      12.239  32.155  23.783  1.00  0.00     0.041 C 
ATOM      9  O   UNL     1      13.149  31.777  23.061  1.00  0.00    -0.550 OA
ATOM     10  O   UNL     1      12.423  32.919  24.890  1.00  0.00    -0.550 OA
ENDBRANCH   7   8
ENDBRANCH   6   7
ENDBRANCH   5   6
ENDBRANCH   4   5
ENDBRANCH   3   4
ENDBRANCH   2   3
ENDBRANCH   1   2
BRANCH   1  11
ATOM     11  C   UNL     1       9.080  31.929  16.290  1.00  0.00    -0.031 C 
ATOM     12  C   UNL     1       8.613  30.747  15.861  1.00  0.00    -0.027 C 
BRANCH  12  13
ATOM     13  C   UNL     1       7.373  30.096  16.400  1.00  0.00     0.054 C 
BRANCH  13  14
ATOM     14  C   UNL     1       7.559  29.649  17.822  1.00  0.00    -0.027 C 
ATOM     15  C   UNL     1       6.647  29.848  18.786  1.00  0.00    -0.031 C 
BRANCH  15  16
ATOM     16  C   UNL     1       5.312  30.531  18.654  1.00  0.00     0.027 C 
BRANCH  16  17
ATOM     17  C   UNL     1       5.154  31.883  19.361  1.00  0.00     0.004 C 
BRANCH  17  18
ATOM     18  C   UNL     1       6.164  32.030  20.503  1.00  0.00     0.000 C 
BRANCH  18  19
ATOM     19  C   UNL     1       5.523  32.450  21.828  1.00  0.00    -0.003 C 
ATOM     20  C   UNL     1       6.427  33.315  22.692  1.00  0.00     0.004 C 
ENDBRANCH  18  19
ENDBRANCH  17  18
ENDBRANCH  16  17
ENDBRANCH  15  16
ENDBRANCH  13  14
ENDBRANCH  12  13
ENDBRANCH   1  11
TORSDOF 14
ENDMDL
MODEL 6
REMARK VINA RESULT:    -6.225      1.907      3.099
REMARK INTER + INTRA:         -13.339
REMARK INTER:                 -11.622
REMARK INTRA:                  -1.717
REMARK UNBOUND:                -2.019
REMARK SMILES CCCCC/C=C\C/C=C\CCCCCCCC(=O)[O-]
REMARK SMILES IDX 11 1 12 2 13 3 14 4 15 5 16 6 17 7 18 8 19 9 20 10 10 11
REMARK SMILES IDX 9 12 8 13 7 14 6 15 5 16 4 17 3 18 2 19 1 20
REMARK H PARENT
REMARK INDEX MAP 8 1 6 2 4 3 3 4 5 5 7 6 9 7 18 8 2 9 1 10 12 11 15 12 16 13
REMARK INDEX MAP 19 14 17 15 13 16 10 17 11 18 14 19 20 20
ROOT
ATOM      1  C   UNL     1       9.642  31.798  20.305  1.00  0.00     0.027 C 
ENDROOT
BRANCH   1   2
ATOM      2  C   UNL     1      11.121  31.422  20.451  1.00  0.00     0.004 C 
BRANCH   2   3
ATOM      3  C   UNL     1      11.623  31.487  21.898  1.00  0.00     0.000 C 
BRANCH   3   4
ATOM      4  C   UNL     1      10.661  32.216  22.841  1.00  0.00     0.000 C 
BRANCH   4   5
ATOM      5  C   UNL     1      11.161  32.280  24.287  1.00  0.00     0.000 C 
BRANCH   5   6
ATOM      6  C   UNL     1      10.147  32.990  25.192  1.00  0.00     0.006 C 
BRANCH   6   7
ATOM      7  C   UNL     1      10.583  33.005  26.656  1.00  0.00     0.053 C 
BRANCH   7   8
ATOM      8  C   UNL     1      11.960  33.589  26.859  1.00  0.00     0.041 C 
ATOM      9  O   UNL     1      12.325  34.706  26.526  1.00  0.00    -0.550 OA
ATOM     10  O   UNL     1      12.755  32.698  27.505  1.00  0.00    -0.550 OA
ENDBRANCH   7   8
ENDBRANCH   6   7
ENDBRANCH   5   6
ENDBRANCH   4   5
ENDBRANCH   3   4
ENDBRANCH   2   3
ENDBRANCH   1   2
BRANCH   1  11
ATOM     11  C   UNL     1       9.321  32.424  18.978  1.00  0.00    -0.031 C 
ATOM     12  C   UNL     1       8.861  31.735  17.922  1.00  0.00    -0.027 C 
BRANCH  12  13
ATOM     13  C   UNL     1       8.610  30.257  17.937  1.00  0.00     0.054 C 
BRANCH  13  14
ATOM     14  C   UNL     1       7.966  29.794  16.660  1.00  0.00    -0.027 C 
ATOM     15  C   UNL     1       6.640  29.653  16.508  1.00  0.00    -0.031 C 
BRANCH  15  16
ATOM     16  C   UNL     1       5.570  29.914  17.533  1.00  0.00     0.027 C 
BRANCH  16  17
ATOM     17  C   UNL     1       4.796  31.232  17.406  1.00  0.00     0.004 C 
BRANCH  17  18
ATOM     18  C   UNL     1       4.981  32.103  18.651  1.00  0.00     0.000 C 
BRANCH  18  19
ATOM     19  C   UNL     1       5.424  31.312  19.884  1.00  0.00    -0.003 C 
ATOM     20  C   UNL     1       5.978  32.185  20.999  1.00  0.00     0.004 C 
ENDBRANCH  18  19
ENDBRANCH  17  18
ENDBRANCH  16  17
ENDBRANCH  15  16
ENDBRANCH  13  14
ENDBRANCH  12  13
ENDBRANCH   1  11
TORSDOF 14
ENDMDL
MODEL 7
REMARK VINA RESULT:    -6.190      1.773      3.291
REMARK INTER + INTRA:         -13.275
REMARK INTER:                 -11.639
REMARK INTRA:                  -1.636
REMARK UNBOUND:                -2.019
REMARK SMILES CCCCC/C=C\C/C=C\CCCCCCCC(=O)[O-]
REMARK SMILES IDX 11 1 12 2 13 3 14 4 15 5 16 6 17 7 18 8 19 9 20 10 10 11
REMARK SMILES IDX 9 12 8 13 7 14 6 15 5 16 4 17 3 18 2 19 1 20
REMARK H PARENT
REMARK INDEX MAP 8 1 6 2 4 3 3 4 5 5 7 6 9 7 18 8 2 9 1 10 12 11 15 12 16 13
REMARK INDEX MAP 19 14 17 15 13 16 10 17 11 18 14 19 20 20
ROOT
ATOM      1  C   UNL     1       9.621  31.814  19.997  1.00  0.00     0.027 C 
ENDROOT
BRANCH   1   2
ATOM      2  C   UNL     1      10.194  31.421  21.364  1.00  0.00     0.004 C 
BRANCH   2   3
ATOM      3  C   UNL     1      10.035  32.515  22.425  1.00  0.00     0.000 C 
BRANCH   3   4
ATOM      4  C   UNL     1      10.651  32.142  23.778  1.00  0.00     0.000 C 
BRANCH   4   5
ATOM      5  C   UNL     1      12.181  32.111  23.760  1.00  0.00     0.000 C 
BRANCH   5   6
ATOM      6  C   UNL     1      12.764  32.959  24.898  1.00  0.00     0.006 C 
BRANCH   6   7
ATOM      7  C   UNL     1      11.738  33.251  25.992  1.00  0.00     0.053 C 
BRANCH   7   8
ATOM      8  C   UNL     1      12.369  33.607  27.317  1.00  0.00     0.041 C 
ATOM      9  O   UNL     1      12.884  32.826  28.101  1.00  0.00    -0.550 OA
ATOM     10  O   UNL     1      12.313  34.949  27.515  1.00  0.00    -0.550 OA
ENDBRANCH   7   8
ENDBRANCH   6   7
ENDBRANCH   5   6
ENDBRANCH   4   5
ENDBRANCH   3   4
ENDBRANCH   2   3
ENDBRANCH   1   2
BRANCH   1  11
ATOM     11  C   UNL     1      10.656  31.838  18.909  1.00  0.00    -0.031 C 
ATOM     12  C   UNL     1      10.378  32.100  17.622  1.00  0.00    -0.027 C 
BRANCH  12  13
ATOM     13  C   UNL     1       9.000  32.401  17.113  1.00  0.00     0.054 C 
BRANCH  13  14
ATOM     14  C   UNL     1       8.555  31.389  16.095  1.00  0.00    -0.027 C 
ATOM     15  C   UNL     1       7.998  30.211  16.416  1.00  0.00    -0.031 C 
BRANCH  15  16
ATOM     16  C   UNL     1       7.715  29.679  17.795  1.00  0.00     0.027 C 
BRANCH  16  17
ATOM     17  C   UNL     1       6.276  29.814  18.307  1.00  0.00     0.004 C 
BRANCH  17  18
ATOM     18  C   UNL     1       6.078  31.135  19.056  1.00  0.00     0.000 C 
BRANCH  18  19
ATOM     19  C   UNL     1       5.188  32.129  18.308  1.00  0.00    -0.003 C 
ATOM     20  C   UNL     1       4.384  31.497  17.182  1.00  0.00     0.004 C 
ENDBRANCH  18  19
ENDBRANCH  17  18
ENDBRANCH  16  17
ENDBRANCH  15  16
ENDBRANCH  13  14
ENDBRANCH  12  13
ENDBRANCH   1  11
TORSDOF 14
ENDMDL
MODEL 8
REMARK VINA RESULT:    -6.163      3.084      6.243
REMARK INTER + INTRA:         -13.226
REMARK INTER:                 -11.013
REMARK INTRA:                  -2.213
REMARK UNBOUND:                -2.019
REMARK SMILES CCCCC/C=C\C/C=C\CCCCCCCC(=O)[O-]
REMARK SMILES IDX 11 1 12 2 13 3 14 4 15 5 16 6 17 7 18 8 19 9 20 10 10 11
REMARK SMILES IDX 9 12 8 13 7 14 6 15 5 16 4 17 3 18 2 19 1 20
REMARK H PARENT
REMARK INDEX MAP 8 1 6 2 4 3 3 4 5 5 7 6 9 7 18 8 2 9 1 10 12 11 15 12 16 13
REMARK INDEX MAP 19 14 17 15 13 16 10 17 11 18 14 19 20 20
ROOT
ATOM      1  C   UNL     1       7.900  32.965  21.670  1.00  0.00     0.027 C 
ENDROOT
BRANCH   1   2
ATOM      2  C   UNL     1       6.496  32.930  22.284  1.00  0.00     0.004 C 
BRANCH   2   3
ATOM      3  C   UNL     1       5.458  32.251  21.385  1.00  0.00     0.000 C 
BRANCH   3   4
ATOM      4  C   UNL     1       5.985  31.936  19.980  1.00  0.00     0.000 C 
BRANCH   4   5
ATOM      5  C   UNL     1       4.968  31.205  19.101  1.00  0.00     0.000 C 
BRANCH   5   6
ATOM      6  C   UNL     1       5.643  30.106  18.271  1.00  0.00     0.006 C 
BRANCH   6   7
ATOM      7  C   UNL     1       7.149  30.031  18.519  1.00  0.00     0.053 C 
BRANCH   7   8
ATOM      8  C   UNL     1       7.898  29.322  17.416  1.00  0.00     0.041 C 
ATOM      9  O   UNL     1       9.007  28.819  17.507  1.00  0.00    -0.550 OA
ATOM     10  O   UNL     1       7.145  29.289  16.287  1.00  0.00    -0.550 OA
ENDBRANCH   7   8
ENDBRANCH   6   7
ENDBRANCH   5   6
ENDBRANCH   4   5
ENDBRANCH   3   4
ENDBRANCH   2   3
ENDBRANCH   1   2
BRANCH   1  11
ATOM     11  C   UNL     1       8.970  33.317  22.664  1.00  0.00    -0.031 C 
ATOM     12  C   UNL     1      10.077  32.583  22.858  1.00  0.00    -0.027 C 
BRANCH  12  13
ATOM     13  C   UNL     1      10.383  31.322  22.105  1.00  0.00     0.054 C 
BRANCH  13  14
ATOM     14  C   UNL     1      11.638  31.458  21.290  1.00  0.00    -0.027 C 
ATOM     15  C   UNL     1      11.644  31.583  19.954  1.00  0.00    -0.031 C 
BRANCH  15  16
ATOM     16  C   UNL     1      10.453  31.611  19.034  1.00  0.00     0.027 C 
BRANCH  16  17
ATOM     17  C   UNL     1      10.227  32.901  18.235  1.00  0.00     0.004 C 
BRANCH  17  18
ATOM     18  C   UNL     1      10.313  32.639  16.728  1.00  0.00     0.000 C 
BRANCH  18  19
ATOM     19  C   UNL     1       8.945  32.560  16.048  1.00  0.00    -0.003 C 
ATOM     20  C   UNL     1       7.816  33.138  16.886  1.00  0.00     0.004 C 
ENDBRANCH  18  19
ENDBRANCH  17  18
ENDBRANCH  16  17
ENDBRANCH  15  16
ENDBRANCH  13  14
ENDBRANCH  12  13
ENDBRANCH   1  11
TORSDOF 14
ENDMDL
MODEL 9
REMARK VINA RESULT:    -6.111      2.794      4.953
REMARK INTER + INTRA:         -13.132
REMARK INTER:                 -11.678
REMARK INTRA:                  -1.453
REMARK UNBOUND:                -2.019
REMARK SMILES CCCCC/C=C\C/C=C\CCCCCCCC(=O)[O-]
REMARK SMILES IDX 11 1 12 2 13 3 14 4 15 5 16 6 17 7 18 8 19 9 20 10 10 11
REMARK SMILES IDX 9 12 8 13 7 14 6 15 5 16 4 17 3 18 2 19 1 20
REMARK H PARENT
REMARK INDEX MAP 8 1 6 2 4 3 3 4 5 5 7 6 9 7 18 8 2 9 1 10 12 11 15 12 16 13
REMARK INDEX MAP 19 14 17 15 13 16 10 17 11 18 14 19 20 20
ROOT
ATOM      1  C   UNL     1      11.278  31.743  21.888  1.00  0.00     0.027 C 
ENDROOT
BRANCH   1   2
ATOM      2  C   UNL     1      11.510  32.087  23.364  1.00  0.00     0.004 C 
BRANCH   2   3
ATOM      3  C   UNL     1      10.235  32.525  24.092  1.00  0.00     0.000 C 
BRANCH   3   4
ATOM      4  C   UNL     1      10.491  33.019  25.520  1.00  0.00     0.000 C 
BRANCH   4   5
ATOM      5  C   UNL     1      11.962  33.340  25.795  1.00  0.00     0.000 C 
BRANCH   5   6
ATOM      6  C   UNL     1      12.099  34.559  26.716  1.00  0.00     0.006 C 
BRANCH   6   7
ATOM      7  C   UNL     1      10.752  35.209  27.028  1.00  0.00     0.053 C 
BRANCH   7   8
ATOM      8  C   UNL     1      10.393  35.156  28.493  1.00  0.00     0.041 C 
ATOM      9  O   UNL     1      10.620  34.230  29.257  1.00  0.00    -0.550 OA
ATOM     10  O   UNL     1       9.794  36.315  28.870  1.00  0.00    -0.550 OA
ENDBRANCH   7   8
ENDBRANCH   6   7
ENDBRANCH   5   6
ENDBRANCH   4   5
ENDBRANCH   3   4
ENDBRANCH   2   3
ENDBRANCH   1   2
BRANCH   1  11
ATOM     11  C   UNL     1       9.827  31.765  21.499  1.00  0.00    -0.031 C 
ATOM     12  C   UNL     1       9.395  31.713  20.229  1.00  0.00    -0.027 C 
BRANCH  12  13
ATOM     13  C   UNL     1      10.308  31.625  19.042  1.00  0.00     0.054 C 
BRANCH  13  14
ATOM     14  C   UNL     1       9.665  32.192  17.809  1.00  0.00    -0.027 C 
ATOM     15  C   UNL     1       8.926  31.463  16.957  1.00  0.00    -0.031 C 
BRANCH  15  16
ATOM     16  C   UNL     1       8.605  29.996  17.051  1.00  0.00     0.027 C 
BRANCH  16  17
ATOM     17  C   UNL     1       7.124  29.606  16.965  1.00  0.00     0.004 C 
BRANCH  17  18
ATOM     18  C   UNL     1       6.455  29.672  18.341  1.00  0.00     0.000 C 
BRANCH  18  19
ATOM     19  C   UNL     1       5.351  30.729  18.428  1.00  0.00    -0.003 C 
ATOM     20  C   UNL     1       5.703  31.901  19.330  1.00  0.00     0.004 C 
ENDBRANCH  18  19
ENDBRANCH  17  18
ENDBRANCH  16  17
ENDBRANCH  15  16
ENDBRANCH  13  14
ENDBRANCH  12  13
ENDBRANCH   1  11
TORSDOF 14
ENDMDL
MODEL 10
REMARK VINA RESULT:    -6.102      3.755      8.758
REMARK INTER + INTRA:         -13.114
REMARK INTER:                 -12.066
REMARK INTRA:                  -1.048
REMARK UNBOUND:                -2.019
REMARK SMILES CCCCC/C=C\C/C=C\CCCCCCCC(=O)[O-]
REMARK SMILES IDX 11 1 12 2 13 3 14 4 15 5 16 6 17 7 18 8 19 9 20 10 10 11
REMARK SMILES IDX 9 12 8 13 7 14 6 15 5 16 4 17 3 18 2 19 1 20
REMARK H PARENT
REMARK INDEX MAP 8 1 6 2 4 3 3 4 5 5 7 6 9 7 18 8 2 9 1 10 12 11 15 12 16 13
REMARK INDEX MAP 19 14 17 15 13 16 10 17 11 18 14 19 20 20
ROOT
ATOM      1  C   UNL     1       9.399  32.080  21.105  1.00  0.00     0.027 C 
ENDROOT
BRANCH   1   2
ATOM      2  C   UNL     1       8.506  31.338  20.103  1.00  0.00     0.004 C 
BRANCH   2   3
ATOM      3  C   UNL     1       7.378  32.207  19.537  1.00  0.00     0.000 C 
BRANCH   3   4
ATOM      4  C   UNL     1       5.991  31.814  20.057  1.00  0.00     0.000 C 
BRANCH   4   5
ATOM      5  C   UNL     1       5.277  30.792  19.168  1.00  0.00     0.000 C 
BRANCH   5   6
ATOM      6  C   UNL     1       5.535  31.076  17.683  1.00  0.00     0.006 C 
BRANCH   6   7
ATOM      7  C   UNL     1       5.953  29.824  16.914  1.00  0.00     0.053 C 
BRANCH   7   8
ATOM      8  C   UNL     1       7.450  29.636  16.857  1.00  0.00     0.041 C 
ATOM      9  O   UNL     1       8.215  30.182  16.077  1.00  0.00    -0.550 OA
ATOM     10  O   UNL     1       7.850  28.778  17.830  1.00  0.00    -0.550 OA
ENDBRANCH   7   8
ENDBRANCH   6   7
ENDBRANCH   5   6
ENDBRANCH   4   5
ENDBRANCH   3   4
ENDBRANCH   2   3
ENDBRANCH   1   2
BRANCH   1  11
ATOM     11  C   UNL     1      10.801  31.544  21.154  1.00  0.00    -0.031 C 
ATOM     12  C   UNL     1      11.568  31.564  22.255  1.00  0.00    -0.027 C 
BRANCH  12  13
ATOM     13  C   UNL     1      11.119  32.123  23.573  1.00  0.00     0.054 C 
BRANCH  13  14
ATOM     14  C   UNL     1      12.287  32.509  24.435  1.00  0.00    -0.027 C 
ATOM     15  C   UNL     1      12.162  33.131  25.618  1.00  0.00    -0.031 C 
BRANCH  15  16
ATOM     16  C   UNL     1      10.887  33.554  26.297  1.00  0.00     0.027 C 
BRANCH  16  17
ATOM     17  C   UNL     1      10.712  35.054  26.565  1.00  0.00     0.004 C 
BRANCH  17  18
ATOM     18  C   UNL     1      10.698  35.347  28.068  1.00  0.00     0.000 C 
BRANCH  18  19
ATOM     19  C   UNL     1      12.089  35.318  28.705  1.00  0.00    -0.003 C 
ATOM     20  C   UNL     1      13.165  35.961  27.844  1.00  0.00     0.004 C 
ENDBRANCH  18  19
ENDBRANCH  17  18
ENDBRANCH  16  17
ENDBRANCH  15  16
ENDBRANCH  13  14
ENDBRANCH  12  13
ENDBRANCH   1  11
TORSDOF 14
ENDMDL
MODEL 11
REMARK VINA RESULT:    -6.072      2.302      4.389
REMARK INTER + INTRA:         -13.060
REMARK INTER:                 -11.784
REMARK INTRA:                  -1.276
REMARK UNBOUND:                -2.019
REMARK SMILES CCCCC/C=C\C/C=C\CCCCCCCC(=O)[O-]
REMARK SMILES IDX 11 1 12 2 13 3 14 4 15 5 16 6 17 7 18 8 19 9 20 10 10 11
REMARK SMILES IDX 9 12 8 13 7 14 6 15 5 16 4 17 3 18 2 19 1 20
REMARK H PARENT
REMARK INDEX MAP 8 1 6 2 4 3 3 4 5 5 7 6 9 7 18 8 2 9 1 10 12 11 15 12 16 13
REMARK INDEX MAP 19 14 17 15 13 16 10 17 11 18 14 19 20 20
ROOT
ATOM      1  C   UNL     1      11.112  31.135  21.348  1.00  0.00     0.027 C 
ENDROOT
BRANCH   1   2
ATOM      2  C   UNL     1      11.762  31.863  22.529  1.00  0.00     0.004 C 
BRANCH   2   3
ATOM      3  C   UNL     1      10.772  32.212  23.646  1.00  0.00     0.000 C 
BRANCH   3   4
ATOM      4  C   UNL     1      11.453  32.706  24.927  1.00  0.00     0.000 C 
BRANCH   4   5
ATOM      5  C   UNL     1      10.463  33.133  26.014  1.00  0.00     0.000 C 
BRANCH   5   6
ATOM      6  C   UNL     1      10.824  34.512  26.579  1.00  0.00     0.006 C 
BRANCH   6   7
ATOM      7  C   UNL     1      12.319  34.655  26.861  1.00  0.00     0.053 C 
BRANCH   7   8
ATOM      8  C   UNL     1      12.748  33.984  28.143  1.00  0.00     0.041 C 
ATOM      9  O   UNL     1      12.959  32.791  28.296  1.00  0.00    -0.550 OA
ATOM     10  O   UNL     1      12.902  34.909  29.125  1.00  0.00    -0.550 OA
ENDBRANCH   7   8
ENDBRANCH   6   7
ENDBRANCH   5   6
ENDBRANCH   4   5
ENDBRANCH   3   4
ENDBRANCH   2   3
ENDBRANCH   1   2
BRANCH   1  11
ATOM     11  C   UNL     1       9.725  31.628  21.043  1.00  0.00    -0.031 C 
ATOM     12  C   UNL     1       9.254  31.802  19.799  1.00  0.00    -0.027 C 
BRANCH  12  13
ATOM     13  C   UNL     1      10.051  31.524  18.559  1.00  0.00     0.054 C 
BRANCH  13  14
ATOM     14  C   UNL     1       9.380  32.080  17.336  1.00  0.00    -0.027 C 
ATOM     15  C   UNL     1       8.584  31.355  16.533  1.00  0.00    -0.031 C 
BRANCH  15  16
ATOM     16  C   UNL     1       8.217  29.903  16.681  1.00  0.00     0.027 C 
BRANCH  16  17
ATOM     17  C   UNL     1       6.726  29.580  16.840  1.00  0.00     0.004 C 
BRANCH  17  18
ATOM     18  C   UNL     1       6.262  29.814  18.281  1.00  0.00     0.000 C 
BRANCH  18  19
ATOM     19  C   UNL     1       5.546  31.151  18.478  1.00  0.00    -0.003 C 
ATOM     20  C   UNL     1       4.547  31.473  17.377  1.00  0.00     0.004 C 
ENDBRANCH  18  19
ENDBRANCH  17  18
ENDBRANCH  16  17
ENDBRANCH  15  16
ENDBRANCH  13  14
ENDBRANCH  12  13
ENDBRANCH   1  11
TORSDOF 14
ENDMDL
MODEL 12
REMARK VINA RESULT:    -6.052      3.182      5.948
REMARK INTER + INTRA:         -13.025
REMARK INTER:                 -11.002
REMARK INTRA:                  -2.022
REMARK UNBOUND:                -2.019
REMARK SMILES CCCCC/C=C\C/C=C\CCCCCCCC(=O)[O-]
REMARK SMILES IDX 11 1 12 2 13 3 14 4 15 5 16 6 17 7 18 8 19 9 20 10 10 11
REMARK SMILES IDX 9 12 8 13 7 14 6 15 5 16 4 17 3 18 2 19 1 20
REMARK H PARENT
REMARK INDEX MAP 8 1 6 2 4 3 3 4 5 5 7 6 9 7 18 8 2 9 1 10 12 11 15 12 16 13
REMARK INDEX MAP 19 14 17 15 13 16 10 17 11 18 14 19 20 20
ROOT
ATOM      1  C   UNL     1       9.834  31.179  21.203  1.00  0.00     0.027 C 
ENDROOT
BRANCH   1   2
ATOM      2  C   UNL     1       9.602  31.895  19.867  1.00  0.00     0.004 C 
BRANCH   2   3
ATOM      3  C   UNL     1      10.822  31.860  18.940  1.00  0.00     0.000 C 
BRANCH   3   4
ATOM      4  C   UNL     1      10.544  32.442  17.550  1.00  0.00     0.000 C 
BRANCH   4   5
ATOM      5  C   UNL     1       9.281  33.304  17.495  1.00  0.00     0.000 C 
BRANCH   5   6
ATOM      6  C   UNL     1       8.107  32.527  16.887  1.00  0.00     0.006 C 
BRANCH   6   7
ATOM      7  C   UNL     1       8.552  31.229  16.215  1.00  0.00     0.053 C 
BRANCH   7   8
ATOM      8  C   UNL     1       7.834  30.010  16.742  1.00  0.00     0.041 C 
ATOM      9  O   UNL     1       6.730  29.619  16.395  1.00  0.00    -0.550 OA
ATOM     10  O   UNL     1       8.608  29.371  17.656  1.00  0.00    -0.550 OA
ENDBRANCH   7   8
ENDBRANCH   6   7
ENDBRANCH   5   6
ENDBRANCH   4   5
ENDBRANCH   3   4
ENDBRANCH   2   3
ENDBRANCH   1   2
BRANCH   1  11
ATOM     11  C   UNL     1      10.913  31.815  22.032  1.00  0.00    -0.031 C 
ATOM     12  C   UNL     1      10.672  32.582  23.106  1.00  0.00    -0.027 C 
BRANCH  12  13
ATOM     13  C   UNL     1       9.296  32.898  23.612  1.00  0.00     0.054 C 
BRANCH  13  14
ATOM     14  C   UNL     1       8.648  33.986  22.804  1.00  0.00    -0.027 C 
ATOM     15  C   UNL     1       7.354  33.973  22.447  1.00  0.00    -0.031 C 
BRANCH  15  16
ATOM     16  C   UNL     1       6.330  32.916  22.763  1.00  0.00     0.027 C 
BRANCH  16  17
ATOM     17  C   UNL     1       5.400  32.491  21.621  1.00  0.00     0.004 C 
BRANCH  17  18
ATOM     18  C   UNL     1       6.186  31.823  20.489  1.00  0.00     0.000 C 
BRANCH  18  19
ATOM     19  C   UNL     1       5.292  31.171  19.432  1.00  0.00    -0.003 C 
ATOM     20  C   UNL     1       4.896  32.113  18.306  1.00  0.00     0.004 C 
ENDBRANCH  18  19
ENDBRANCH  17  18
ENDBRANCH  16  17
ENDBRANCH  15  16
ENDBRANCH  13  14
ENDBRANCH  12  13
ENDBRANCH   1  11
TORSDOF 14
ENDMDL
MODEL 13
REMARK VINA RESULT:    -6.032      4.839     10.151
REMARK INTER + INTRA:         -12.988
REMARK INTER:                 -11.678
REMARK INTRA:                  -1.310
REMARK UNBOUND:                -2.019
REMARK SMILES CCCCC/C=C\C/C=C\CCCCCCCC(=O)[O-]
REMARK SMILES IDX 11 1 12 2 13 3 14 4 15 5 16 6 17 7 18 8 19 9 20 10 10 11
REMARK SMILES IDX 9 12 8 13 7 14 6 15 5 16 4 17 3 18 2 19 1 20
REMARK H PARENT
REMARK INDEX MAP 8 1 6 2 4 3 3 4 5 5 7 6 9 7 18 8 2 9 1 10 12 11 15 12 16 13
REMARK INDEX MAP 19 14 17 15 13 16 10 17 11 18 14 19 20 20
ROOT
ATOM      1  C   UNL     1      10.976  32.179  24.197  1.00  0.00     0.027 C 
ENDROOT
BRANCH   1   2
ATOM      2  C   UNL     1      10.546  32.564  22.777  1.00  0.00     0.004 C 
BRANCH   2   3
ATOM      3  C   UNL     1      10.646  31.406  21.779  1.00  0.00     0.000 C 
BRANCH   3   4
ATOM      4  C   UNL     1      10.006  31.718  20.422  1.00  0.00     0.000 C 
BRANCH   4   5
ATOM      5  C   UNL     1       8.493  31.932  20.500  1.00  0.00     0.000 C 
BRANCH   5   6
ATOM      6  C   UNL     1       7.833  31.724  19.131  1.00  0.00     0.006 C 
BRANCH   6   7
ATOM      7  C   UNL     1       8.767  31.044  18.131  1.00  0.00     0.053 C 
BRANCH   7   8
ATOM      8  C   UNL     1       8.188  29.780  17.543  1.00  0.00     0.041 C 
ATOM      9  O   UNL     1       7.623  28.891  18.161  1.00  0.00    -0.550 OA
ATOM     10  O   UNL     1       8.355  29.773  16.196  1.00  0.00    -0.550 OA
ENDBRANCH   7   8
ENDBRANCH   6   7
ENDBRANCH   5   6
ENDBRANCH   4   5
ENDBRANCH   3   4
ENDBRANCH   2   3
ENDBRANCH   1   2
BRANCH   1  11
ATOM     11  C   UNL     1      10.098  32.775  25.261  1.00  0.00    -0.031 C 
ATOM     12  C   UNL     1      10.566  33.318  26.395  1.00  0.00    -0.027 C 
BRANCH  12  13
ATOM     13  C   UNL     1      12.024  33.400  26.740  1.00  0.00     0.054 C 
BRANCH  13  14
ATOM     14  C   UNL     1      12.523  34.816  26.690  1.00  0.00    -0.027 C 
ATOM     15  C   UNL     1      13.112  35.431  27.727  1.00  0.00    -0.031 C 
BRANCH  15  16
ATOM     16  C   UNL     1      13.383  34.861  29.094  1.00  0.00     0.027 C 
BRANCH  16  17
ATOM     17  C   UNL     1      12.752  35.593  30.285  1.00  0.00     0.004 C 
BRANCH  17  18
ATOM     18  C   UNL     1      11.733  34.704  31.002  1.00  0.00     0.000 C 
BRANCH  18  19
ATOM     19  C   UNL     1      10.414  34.558  30.240  1.00  0.00    -0.003 C 
ATOM     20  C   UNL     1       9.913  35.862  29.637  1.00  0.00     0.004 C 
ENDBRANCH  18  19
ENDBRANCH  17  18
ENDBRANCH  16  17
ENDBRANCH  15  16
ENDBRANCH  13  14
ENDBRANCH  12  13
ENDBRANCH   1  11
TORSDOF 14
ENDMDL
MODEL 14
REMARK VINA RESULT:    -6.004      3.187      5.832
REMARK INTER + INTRA:         -12.936
REMARK INTER:                 -10.842
REMARK INTRA:                  -2.094
REMARK UNBOUND:                -2.019
REMARK SMILES CCCCC/C=C\C/C=C\CCCCCCCC(=O)[O-]
REMARK SMILES IDX 11 1 12 2 13 3 14 4 15 5 16 6 17 7 18 8 19 9 20 10 10 11
REMARK SMILES IDX 9 12 8 13 7 14 6 15 5 16 4 17 3 18 2 19 1 20
REMARK H PARENT
REMARK INDEX MAP 8 1 6 2 4 3 3 4 5 5 7 6 9 7 18 8 2 9 1 10 12 11 15 12 16 13
REMARK INDEX MAP 19 14 17 15 13 16 10 17 11 18 14 19 20 20
ROOT
ATOM      1  C   UNL     1       8.311  32.781  17.505  1.00  0.00     0.027 C 
ENDROOT
BRANCH   1   2
ATOM      2  C   UNL     1       7.209  33.105  16.490  1.00  0.00     0.004 C 
BRANCH   2   3
ATOM      3  C   UNL     1       5.945  33.686  17.132  1.00  0.00     0.000 C 
BRANCH   3   4
ATOM      4  C   UNL     1       4.868  32.632  17.414  1.00  0.00     0.000 C 
BRANCH   4   5
ATOM      5  C   UNL     1       5.129  31.824  18.687  1.00  0.00     0.000 C 
BRANCH   5   6
ATOM      6  C   UNL     1       5.215  30.323  18.383  1.00  0.00     0.006 C 
BRANCH   6   7
ATOM      7  C   UNL     1       6.626  29.769  18.574  1.00  0.00     0.053 C 
BRANCH   7   8
ATOM      8  C   UNL     1       7.284  29.362  17.277  1.00  0.00     0.041 C 
ATOM      9  O   UNL     1       6.733  29.255  16.193  1.00  0.00    -0.550 OA
ATOM     10  O   UNL     1       8.611  29.153  17.472  1.00  0.00    -0.550 OA
ENDBRANCH   7   8
ENDBRANCH   6   7
ENDBRANCH   5   6
ENDBRANCH   4   5
ENDBRANCH   3   4
ENDBRANCH   2   3
ENDBRANCH   1   2
BRANCH   1  11
ATOM     11  C   UNL     1       9.670  33.253  17.072  1.00  0.00    -0.031 C 
ATOM     12  C   UNL     1      10.816  32.659  17.437  1.00  0.00    -0.027 C 
BRANCH  12  13
ATOM     13  C   UNL     1      10.882  31.449  18.321  1.00  0.00     0.054 C 
BRANCH  13  14
ATOM     14  C   UNL     1      11.293  31.811  19.720  1.00  0.00    -0.027 C 
ATOM     15  C   UNL     1      10.450  31.809  20.764  1.00  0.00    -0.031 C 
BRANCH  15  16
ATOM     16  C   UNL     1       8.985  31.463  20.755  1.00  0.00     0.027 C 
BRANCH  16  17
ATOM     17  C   UNL     1       7.998  32.634  20.831  1.00  0.00     0.004 C 
BRANCH  17  18
ATOM     18  C   UNL     1       7.999  33.267  22.226  1.00  0.00     0.000 C 
BRANCH  18  19
ATOM     19  C   UNL     1       6.596  33.585  22.748  1.00  0.00    -0.003 C 
ATOM     20  C   UNL     1       5.528  32.628  22.243  1.00  0.00     0.004 C 
ENDBRANCH  18  19
ENDBRANCH  17  18
ENDBRANCH  16  17
ENDBRANCH  15  16
ENDBRANCH  13  14
ENDBRANCH  12  13
ENDBRANCH   1  11
TORSDOF 14
ENDMDL
MODEL 15
REMARK VINA RESULT:    -5.993      3.120      5.291
REMARK INTER + INTRA:         -12.916
REMARK INTER:                 -11.790
REMARK INTRA:                  -1.126
REMARK UNBOUND:                -2.019
REMARK SMILES CCCCC/C=C\C/C=C\CCCCCCCC(=O)[O-]
REMARK SMILES IDX 11 1 12 2 13 3 14 4 15 5 16 6 17 7 18 8 19 9 20 10 10 11
REMARK SMILES IDX 9 12 8 13 7 14 6 15 5 16 4 17 3 18 2 19 1 20
REMARK H PARENT
REMARK INDEX MAP 8 1 6 2 4 3 3 4 5 5 7 6 9 7 18 8 2 9 1 10 12 11 15 12 16 13
REMARK INDEX MAP 19 14 17 15 13 16 10 17 11 18 14 19 20 20
ROOT
ATOM      1  C   UNL     1      10.049  32.493  22.472  1.00  0.00     0.027 C 
ENDROOT
BRANCH   1   2
ATOM      2  C   UNL     1      10.945  32.149  23.668  1.00  0.00     0.004 C 
BRANCH   2   3
ATOM      3  C   UNL     1      10.511  32.836  24.967  1.00  0.00     0.000 C 
BRANCH   3   4
ATOM      4  C   UNL     1      11.688  33.348  25.805  1.00  0.00     0.000 C 
BRANCH   4   5
ATOM      5  C   UNL     1      11.277  34.369  26.868  1.00  0.00     0.000 C 
BRANCH   5   6
ATOM      6  C   UNL     1      12.409  34.605  27.875  1.00  0.00     0.006 C 
BRANCH   6   7
ATOM      7  C   UNL     1      12.820  33.325  28.601  1.00  0.00     0.053 C 
BRANCH   7   8
ATOM      8  C   UNL     1      13.451  33.583  29.948  1.00  0.00     0.041 C 
ATOM      9  O   UNL     1      12.899  34.081  30.918  1.00  0.00    -0.550 OA
ATOM     10  O   UNL     1      14.738  33.150  29.952  1.00  0.00    -0.550 OA
ENDBRANCH   7   8
ENDBRANCH   6   7
ENDBRANCH   5   6
ENDBRANCH   4   5
ENDBRANCH   3   4
ENDBRANCH   2   3
ENDBRANCH   1   2
BRANCH   1  11
ATOM     11  C   UNL     1      10.128  31.479  21.366  1.00  0.00    -0.031 C 
ATOM     12  C   UNL     1       9.287  31.451  20.320  1.00  0.00    -0.027 C 
BRANCH  12  13
ATOM     13  C   UNL     1       8.167  32.429  20.126  1.00  0.00     0.054 C 
BRANCH  13  14
ATOM     14  C   UNL     1       6.858  31.871  20.607  1.00  0.00    -0.027 C 
ATOM     15  C   UNL     1       5.783  31.717  19.818  1.00  0.00    -0.031 C 
BRANCH  15  16
ATOM     16  C   UNL     1       5.666  32.058  18.356  1.00  0.00     0.027 C 
BRANCH  16  17
ATOM     17  C   UNL     1       4.854  31.092  17.485  1.00  0.00     0.004 C 
BRANCH  17  18
ATOM     18  C   UNL     1       5.669  29.844  17.137  1.00  0.00     0.000 C 
BRANCH  18  19
ATOM     19  C   UNL     1       7.076  30.161  16.625  1.00  0.00    -0.003 C 
ATOM     20  C   UNL     1       8.174  29.414  17.365  1.00  0.00     0.004 C 
ENDBRANCH  18  19
ENDBRANCH  17  18
ENDBRANCH  16  17
ENDBRANCH  15  16
ENDBRANCH  13  14
ENDBRANCH  12  13
ENDBRANCH   1  11
TORSDOF 14
ENDMDL
MODEL 16
REMARK VINA RESULT:    -5.975      3.646      8.448
REMARK INTER + INTRA:         -12.883
REMARK INTER:                 -11.756
REMARK INTRA:                  -1.127
REMARK UNBOUND:                -2.019
REMARK SMILES CCCCC/C=C\C/C=C\CCCCCCCC(=O)[O-]
REMARK SMILES IDX 11 1 12 2 13 3 14 4 15 5 16 6 17 7 18 8 19 9 20 10 10 11
REMARK SMILES IDX 9 12 8 13 7 14 6 15 5 16 4 17 3 18 2 19 1 20
REMARK H PARENT
REMARK INDEX MAP 8 1 6 2 4 3 3 4 5 5 7 6 9 7 18 8 2 9 1 10 12 11 15 12 16 13
REMARK INDEX MAP 19 14 17 15 13 16 10 17 11 18 14 19 20 20
ROOT
ATOM      1  C   UNL     1       9.281  31.850  20.318  1.00  0.00     0.027 C 
ENDROOT
BRANCH   1   2
ATOM      2  C   UNL     1       8.808  32.134  18.888  1.00  0.00     0.004 C 
BRANCH   2   3
ATOM      3  C   UNL     1       9.218  31.049  17.887  1.00  0.00     0.000 C 
BRANCH   3   4
ATOM      4  C   UNL     1       8.196  30.842  16.764  1.00  0.00     0.000 C 
BRANCH   4   5
ATOM      5  C   UNL     1       7.478  29.491  16.838  1.00  0.00     0.000 C 
BRANCH   5   6
ATOM      6  C   UNL     1       5.959  29.677  16.930  1.00  0.00     0.006 C 
BRANCH   6   7
ATOM      7  C   UNL     1       5.571  31.030  17.524  1.00  0.00     0.053 C 
BRANCH   7   8
ATOM      8  C   UNL     1       5.268  30.963  19.002  1.00  0.00     0.041 C 
ATOM      9  O   UNL     1       5.133  29.946  19.664  1.00  0.00    -0.550 OA
ATOM     10  O   UNL     1       5.191  32.215  19.520  1.00  0.00    -0.550 OA
ENDBRANCH   7   8
ENDBRANCH   6   7
ENDBRANCH   5   6
ENDBRANCH   4   5
ENDBRANCH   3   4
ENDBRANCH   2   3
ENDBRANCH   1   2
BRANCH   1  11
ATOM     11  C   UNL     1      10.724  31.439  20.391  1.00  0.00    -0.031 C 
ATOM     12  C   UNL     1      11.459  31.498  21.512  1.00  0.00    -0.027 C 
BRANCH  12  13
ATOM     13  C   UNL     1      10.931  31.979  22.831  1.00  0.00     0.054 C 
BRANCH  13  14
ATOM     14  C   UNL     1      12.041  32.231  23.811  1.00  0.00    -0.027 C 
ATOM     15  C   UNL     1      11.840  32.684  25.058  1.00  0.00    -0.031 C 
BRANCH  15  16
ATOM     16  C   UNL     1      10.524  33.021  25.707  1.00  0.00     0.027 C 
BRANCH  16  17
ATOM     17  C   UNL     1      10.583  33.809  27.022  1.00  0.00     0.004 C 
BRANCH  17  18
ATOM     18  C   UNL     1      11.397  35.096  26.858  1.00  0.00     0.000 C 
BRANCH  18  19
ATOM     19  C   UNL     1      12.499  35.254  27.908  1.00  0.00    -0.003 C 
ATOM     20  C   UNL     1      12.893  33.945  28.577  1.00  0.00     0.004 C 
ENDBRANCH  18  19
ENDBRANCH  17  18
ENDBRANCH  16  17
ENDBRANCH  15  16
ENDBRANCH  13  14
ENDBRANCH  12  13
ENDBRANCH   1  11
TORSDOF 14
ENDMDL
MODEL 17
REMARK VINA RESULT:    -5.964      4.681     10.240
REMARK INTER + INTRA:         -12.863
REMARK INTER:                 -11.540
REMARK INTRA:                  -1.324
REMARK UNBOUND:                -2.019
REMARK SMILES CCCCC/C=C\C/C=C\CCCCCCCC(=O)[O-]
REMARK SMILES IDX 11 1 12 2 13 3 14 4 15 5 16 6 17 7 18 8 19 9 20 10 10 11
REMARK SMILES IDX 9 12 8 13 7 14 6 15 5 16 4 17 3 18 2 19 1 20
REMARK H PARENT
REMARK INDEX MAP 8 1 6 2 4 3 3 4 5 5 7 6 9 7 18 8 2 9 1 10 12 11 15 12 16 13
REMARK INDEX MAP 19 14 17 15 13 16 10 17 11 18 14 19 20 20
ROOT
ATOM      1  C   UNL     1      11.847  32.182  23.920  1.00  0.00     0.027 C 
ENDROOT
BRANCH   1   2
ATOM      2  C   UNL     1      11.623  31.917  22.427  1.00  0.00     0.004 C 
BRANCH   2   3
ATOM      3  C   UNL     1      10.189  32.204  21.970  1.00  0.00     0.000 C 
BRANCH   3   4
ATOM      4  C   UNL     1       9.792  31.441  20.701  1.00  0.00     0.000 C 
BRANCH   4   5
ATOM      5  C   UNL     1      10.671  31.775  19.493  1.00  0.00     0.000 C 
BRANCH   5   6
ATOM      6  C   UNL     1       9.818  32.152  18.276  1.00  0.00     0.006 C 
BRANCH   6   7
ATOM      7  C   UNL     1       8.517  31.353  18.206  1.00  0.00     0.053 C 
BRANCH   7   8
ATOM      8  C   UNL     1       8.602  30.160  17.285  1.00  0.00     0.041 C 
ATOM      9  O   UNL     1       8.907  29.022  17.607  1.00  0.00    -0.550 OA
ATOM     10  O   UNL     1       8.256  30.519  16.022  1.00  0.00    -0.550 OA
ENDBRANCH   7   8
ENDBRANCH   6   7
ENDBRANCH   5   6
ENDBRANCH   4   5
ENDBRANCH   3   4
ENDBRANCH   2   3
ENDBRANCH   1   2
BRANCH   1  11
ATOM     11  C   UNL     1      10.600  32.615  24.637  1.00  0.00    -0.031 C 
ATOM     12  C   UNL     1      10.585  33.064  25.901  1.00  0.00    -0.027 C 
BRANCH  12  13
ATOM     13  C   UNL     1      11.812  33.189  26.755  1.00  0.00     0.054 C 
BRANCH  13  14
ATOM     14  C   UNL     1      12.336  34.597  26.763  1.00  0.00    -0.027 C 
ATOM     15  C   UNL     1      11.987  35.513  27.681  1.00  0.00    -0.031 C 
BRANCH  15  16
ATOM     16  C   UNL     1      11.041  35.332  28.838  1.00  0.00     0.027 C 
BRANCH  16  17
ATOM     17  C   UNL     1      11.585  35.664  30.233  1.00  0.00     0.004 C 
BRANCH  17  18
ATOM     18  C   UNL     1      12.256  34.443  30.868  1.00  0.00     0.000 C 
BRANCH  18  19
ATOM     19  C   UNL     1      13.770  34.400  30.646  1.00  0.00    -0.003 C 
ATOM     20  C   UNL     1      14.239  33.162  29.897  1.00  0.00     0.004 C 
ENDBRANCH  18  19
ENDBRANCH  17  18
ENDBRANCH  16  17
ENDBRANCH  15  16
ENDBRANCH  13  14
ENDBRANCH  12  13
ENDBRANCH   1  11
TORSDOF 14
ENDMDL
MODEL 18
REMARK VINA RESULT:    -5.918      3.438      5.717
REMARK INTER + INTRA:         -12.780
REMARK INTER:                 -11.613
REMARK INTRA:                  -1.167
REMARK UNBOUND:                -2.019
REMARK SMILES CCCCC/C=C\C/C=C\CCCCCCCC(=O)[O-]
REMARK SMILES IDX 11 1 12 2 13 3 14 4 15 5 16 6 17 7 18 8 19 9 20 10 10 11
REMARK SMILES IDX 9 12 8 13 7 14 6 15 5 16 4 17 3 18 2 19 1 20
REMARK H PARENT
REMARK INDEX MAP 8 1 6 2 4 3 3 4 5 5 7 6 9 7 18 8 2 9 1 10 12 11 15 12 16 13
REMARK INDEX MAP 19 14 17 15 13 16 10 17 11 18 14 19 20 20
ROOT
ATOM      1  C   UNL     1      11.492  32.135  22.797  1.00  0.00     0.027 C 
ENDROOT
BRANCH   1   2
ATOM      2  C   UNL     1      11.727  32.203  24.311  1.00  0.00     0.004 C 
BRANCH   2   3
ATOM      3  C   UNL     1      10.539  32.787  25.083  1.00  0.00     0.000 C 
BRANCH   3   4
ATOM      4  C   UNL     1      10.955  33.771  26.182  1.00  0.00     0.000 C 
BRANCH   4   5
ATOM      5  C   UNL     1      12.161  33.295  26.997  1.00  0.00     0.000 C 
BRANCH   5   6
ATOM      6  C   UNL     1      12.144  33.894  28.409  1.00  0.00     0.006 C 
BRANCH   6   7
ATOM      7  C   UNL     1      13.370  33.492  29.227  1.00  0.00     0.053 C 
BRANCH   7   8
ATOM      8  C   UNL     1      13.345  34.030  30.637  1.00  0.00     0.041 C 
ATOM      9  O   UNL     1      12.379  34.047  31.384  1.00  0.00    -0.550 OA
ATOM     10  O   UNL     1      14.578  34.479  30.988  1.00  0.00    -0.550 OA
ENDBRANCH   7   8
ENDBRANCH   6   7
ENDBRANCH   5   6
ENDBRANCH   4   5
ENDBRANCH   3   4
ENDBRANCH   2   3
ENDBRANCH   1   2
BRANCH   1  11
ATOM     11  C   UNL     1      10.038  32.202  22.423  1.00  0.00    -0.031 C 
ATOM     12  C   UNL     1       9.574  31.939  21.192  1.00  0.00    -0.027 C 
BRANCH  12  13
ATOM     13  C   UNL     1      10.448  31.545  20.038  1.00  0.00     0.054 C 
BRANCH  13  14
ATOM     14  C   UNL     1      10.014  32.214  18.765  1.00  0.00    -0.027 C 
ATOM     15  C   UNL     1       9.200  31.639  17.865  1.00  0.00    -0.031 C 
BRANCH  15  16
ATOM     16  C   UNL     1       8.582  30.269  17.938  1.00  0.00     0.027 C 
BRANCH  16  17
ATOM     17  C   UNL     1       7.117  30.195  18.385  1.00  0.00     0.004 C 
BRANCH  17  18
ATOM     18  C   UNL     1       6.550  31.592  18.653  1.00  0.00     0.000 C 
BRANCH  18  19
ATOM     19  C   UNL     1       5.358  31.589  19.614  1.00  0.00    -0.003 C 
ATOM     20  C   UNL     1       5.707  32.062  21.016  1.00  0.00     0.004 C 
ENDBRANCH  18  19
ENDBRANCH  17  18
ENDBRANCH  16  17
ENDBRANCH  15  16
ENDBRANCH  13  14
ENDBRANCH  12  13
ENDBRANCH   1  11
TORSDOF 14
ENDMDL
MODEL 19
REMARK VINA RESULT:    -5.877      3.655      6.304
REMARK INTER + INTRA:         -12.706
REMARK INTER:                 -11.677
REMARK INTRA:                  -1.029
REMARK UNBOUND:                -2.019
REMARK SMILES CCCCC/C=C\C/C=C\CCCCCCCC(=O)[O-]
REMARK SMILES IDX 11 1 12 2 13 3 14 4 15 5 16 6 17 7 18 8 19 9 20 10 10 11
REMARK SMILES IDX 9 12 8 13 7 14 6 15 5 16 4 17 3 18 2 19 1 20
REMARK H PARENT
REMARK INDEX MAP 8 1 6 2 4 3 3 4 5 5 7 6 9 7 18 8 2 9 1 10 12 11 15 12 16 13
REMARK INDEX MAP 19 14 17 15 13 16 10 17 11 18 14 19 20 20
ROOT
ATOM      1  C   UNL     1      10.095  32.644  24.591  1.00  0.00     0.027 C 
ENDROOT
BRANCH   1   2
ATOM      2  C   UNL     1      10.575  33.184  25.943  1.00  0.00     0.004 C 
BRANCH   2   3
ATOM      3  C   UNL     1      12.089  33.412  26.002  1.00  0.00     0.000 C 
BRANCH   3   4
ATOM      4  C   UNL     1      12.484  34.643  26.825  1.00  0.00     0.000 C 
BRANCH   4   5
ATOM      5  C   UNL     1      11.425  35.053  27.851  1.00  0.00     0.000 C 
BRANCH   5   6
ATOM      6  C   UNL     1      12.075  35.585  29.135  1.00  0.00     0.006 C 
BRANCH   6   7
ATOM      7  C   UNL     1      12.253  34.496  30.192  1.00  0.00     0.053 C 
BRANCH   7   8
ATOM      8  C   UNL     1      13.687  34.050  30.348  1.00  0.00     0.041 C 
ATOM      9  O   UNL     1      14.519  34.546  31.092  1.00  0.00    -0.550 OA
ATOM     10  O   UNL     1      13.930  32.976  29.554  1.00  0.00    -0.550 OA
ENDBRANCH   7   8
ENDBRANCH   6   7
ENDBRANCH   5   6
ENDBRANCH   4   5
ENDBRANCH   3   4
ENDBRANCH   2   3
ENDBRANCH   1   2
BRANCH   1  11
ATOM     11  C   UNL     1      11.222  32.206  23.698  1.00  0.00    -0.031 C 
ATOM     12  C   UNL     1      11.068  31.898  22.401  1.00  0.00    -0.027 C 
BRANCH  12  13
ATOM     13  C   UNL     1       9.752  31.955  21.682  1.00  0.00     0.054 C 
BRANCH  13  14
ATOM     14  C   UNL     1       9.884  31.504  20.256  1.00  0.00    -0.027 C 
ATOM     15  C   UNL     1       8.918  31.658  19.337  1.00  0.00    -0.031 C 
BRANCH  15  16
ATOM     16  C   UNL     1       7.563  32.284  19.533  1.00  0.00     0.027 C 
BRANCH  16  17
ATOM     17  C   UNL     1       6.348  31.356  19.405  1.00  0.00     0.004 C 
BRANCH  17  18
ATOM     18  C   UNL     1       5.734  31.441  18.005  1.00  0.00     0.000 C 
BRANCH  18  19
ATOM     19  C   UNL     1       5.731  30.103  17.262  1.00  0.00    -0.003 C 
ATOM     20  C   UNL     1       7.092  29.713  16.707  1.00  0.00     0.004 C 
ENDBRANCH  18  19
ENDBRANCH  17  18
ENDBRANCH  16  17
ENDBRANCH  15  16
ENDBRANCH  13  14
ENDBRANCH  12  13
ENDBRANCH   1  11
TORSDOF 14
ENDMDL
MODEL 20
REMARK VINA RESULT:    -5.869      4.473      9.642
REMARK INTER + INTRA:         -12.690
REMARK INTER:                 -11.807
REMARK INTRA:                  -0.883
REMARK UNBOUND:                -2.019
REMARK SMILES CCCCC/C=C\C/C=C\CCCCCCCC(=O)[O-]
REMARK SMILES IDX 11 1 12 2 13 3 14 4 15 5 16 6 17 7 18 8 19 9 20 10 10 11
REMARK SMILES IDX 9 12 8 13 7 14 6 15 5 16 4 17 3 18 2 19 1 20
REMARK H PARENT
REMARK INDEX MAP 8 1 6 2 4 3 3 4 5 5 7 6 9 7 18 8 2 9 1 10 12 11 15 12 16 13
REMARK INDEX MAP 19 14 17 15 13 16 10 17 11 18 14 19 20 20
ROOT
ATOM      1  C   UNL     1      10.110  32.217  21.988  1.00  0.00     0.027 C 
ENDROOT
BRANCH   1   2
ATOM      2  C   UNL     1      10.209  31.482  20.646  1.00  0.00     0.004 C 
BRANCH   2   3
ATOM      3  C   UNL     1       8.897  31.487  19.854  1.00  0.00     0.000 C 
BRANCH   3   4
ATOM      4  C   UNL     1       9.032  32.116  18.463  1.00  0.00     0.000 C 
BRANCH   4   5
ATOM      5  C   UNL     1       8.975  31.092  17.326  1.00  0.00     0.000 C 
BRANCH   5   6
ATOM      6  C   UNL     1       8.145  29.867  17.727  1.00  0.00     0.006 C 
BRANCH   6   7
ATOM      7  C   UNL     1       6.873  29.726  16.892  1.00  0.00     0.053 C 
BRANCH   7   8
ATOM      8  C   UNL     1       5.614  29.999  17.679  1.00  0.00     0.041 C 
ATOM      9  O   UNL     1       4.607  30.549  17.259  1.00  0.00    -0.550 OA
ATOM     10  O   UNL     1       5.737  29.515  18.941  1.00  0.00    -0.550 OA
ENDBRANCH   7   8
ENDBRANCH   6   7
ENDBRANCH   5   6
ENDBRANCH   4   5
ENDBRANCH   3   4
ENDBRANCH   2   3
ENDBRANCH   1   2
BRANCH   1  11
ATOM     11  C   UNL     1      11.246  31.900  22.919  1.00  0.00    -0.031 C 
ATOM     12  C   UNL     1      11.265  32.245  24.215  1.00  0.00    -0.027 C 
BRANCH  12  13
ATOM     13  C   UNL     1      10.153  32.986  24.896  1.00  0.00     0.054 C 
BRANCH  13  14
ATOM     14  C   UNL     1      10.170  32.761  26.382  1.00  0.00    -0.027 C 
ATOM     15  C   UNL     1      10.689  33.636  27.258  1.00  0.00    -0.031 C 
BRANCH  15  16
ATOM     16  C   UNL     1      11.335  34.960  26.952  1.00  0.00     0.027 C 
BRANCH  16  17
ATOM     17  C   UNL     1      12.856  35.045  27.132  1.00  0.00     0.004 C 
BRANCH  17  18
ATOM     18  C   UNL     1      13.246  36.273  27.960  1.00  0.00     0.000 C 
BRANCH  18  19
ATOM     19  C   UNL     1      13.269  36.005  29.467  1.00  0.00    -0.003 C 
ATOM     20  C   UNL     1      14.550  35.341  29.946  1.00  0.00     0.004 C 
ENDBRANCH  18  19
ENDBRANCH  17  18
ENDBRANCH  16  17
ENDBRANCH  15  16
ENDBRANCH  13  14
ENDBRANCH  12  13
ENDBRANCH   1  11
TORSDOF 14
ENDMDL
