MODEL 1
REMARK VINA RESULT:    -5.955      0.000      0.000
REMARK INTER + INTRA:         -12.815
REMARK INTER:                 -10.829
REMARK INTRA:                  -1.986
REMARK UNBOUND:                -1.986
REMARK SMILES CCCCCCCCCCCCCCCC(=O)[O-]
REMARK SMILES IDX 9 1 10 2 11 3 12 4 13 5 14 6 15 7 16 8 17 9 18 10 8 11 7 12
REMARK SMILES IDX 6 13 5 14 4 15 3 16 2 17 1 18
REMARK H PARENT
REMARK INDEX MAP 4 1 6 2 8 3 10 4 12 5 14 6 16 7 18 8 2 9 1 10 3 11 5 12 7 13
REMARK INDEX MAP 9 14 11 15 13 16 15 17 17 18
ROOT
ATOM      1  C   UNL     1       6.049  31.765  20.344  1.00  0.00     0.000 C 
ENDROOT
BRANCH   1   2
ATOM      2  C   UNL     1       5.605  32.289  21.714  1.00  0.00     0.000 C 
BRANCH   2   3
ATOM      3  C   UNL     1       6.554  33.287  22.388  1.00  0.00     0.000 C 
BRANCH   3   4
ATOM      4  C   UNL     1       8.010  33.147  21.939  1.00  0.00     0.000 C 
BRANCH   4   5
ATOM      5  C   UNL     1       8.975  33.330  23.111  1.00  0.00     0.000 C 
BRANCH   5   6
ATOM      6  C   UNL     1      10.231  32.455  23.020  1.00  0.00     0.006 C 
BRANCH   6   7
ATOM      7  C   UNL     1      10.312  31.591  21.761  1.00  0.00     0.053 C 
BRANCH   7   8
ATOM      8  C   UNL     1      11.707  31.415  21.214  1.00  0.00     0.041 C 
ATOM      9  O   UNL     1      11.956  31.204  20.035  1.00  0.00    -0.550 OA
ATOM     10  O   UNL     1      12.661  31.482  22.174  1.00  0.00    -0.550 OA
ENDBRANCH   7   8
ENDBRANCH   6   7
ENDBRANCH   5   6
ENDBRANCH   4   5
ENDBRANCH   3   4
ENDBRANCH   2   3
ENDBRANCH   1   2
BRANCH   1  11
ATOM     11  C   UNL     1       5.031  32.022  19.230  1.00  0.00     0.000 C 
BRANCH  11  12
ATOM     12  C   UNL     1       5.292  31.111  18.028  1.00  0.00    -0.000 C 
BRANCH  12  13
ATOM     13  C   UNL     1       6.261  29.984  18.387  1.00  0.00    -0.000 C 
BRANCH  13  14
ATOM     14  C   UNL     1       7.157  29.553  17.222  1.00  0.00    -0.000 C 
BRANCH  14  15
ATOM     15  C   UNL     1       8.250  30.547  16.811  1.00  0.00    -0.000 C 
BRANCH  15  16
ATOM     16  C   UNL     1       9.188  30.933  17.958  1.00  0.00    -0.000 C 
BRANCH  16  17
ATOM     17  C   UNL     1       9.146  32.425  18.300  1.00  0.00    -0.003 C 
ATOM     18  C   UNL     1       8.165  33.217  17.450  1.00  0.00     0.004 C 
ENDBRANCH  16  17
ENDBRANCH  15  16
ENDBRANCH  14  15
ENDBRANCH  13  14
ENDBRANCH  12  13
ENDBRANCH  11  12
ENDBRANCH   1  11
TORSDOF 14
ENDMDL
MODEL 2
REMARK VINA RESULT:    -5.930      2.200      4.273
REMARK INTER + INTRA:         -12.769
REMARK INTER:                 -11.260
REMARK INTRA:                  -1.510
REMARK UNBOUND:                -1.986
REMARK SMILES CCCCCCCCCCCCCCCC(=O)[O-]
REMARK SMILES IDX 9 1 10 2 11 3 12 4 13 5 14 6 15 7 16 8 17 9 18 10 8 11 7 12
REMARK SMILES IDX 6 13 5 14 4 15 3 16 2 17 1 18
REMARK H PARENT
REMARK INDEX MAP 4 1 6 2 8 3 10 4 12 5 14 6 16 7 18 8 2 9 1 10 3 11 5 12 7 13
REMARK INDEX MAP 9 14 11 15 13 16 15 17 17 18
ROOT
ATOM      1  C   UNL     1       7.807  33.507  22.119  1.00  0.00     0.000 C 
ENDROOT
BRANCH   1   2
ATOM      2  C   UNL     1       8.965  33.286  23.097  1.00  0.00     0.000 C 
BRANCH   2   3
ATOM      3  C   UNL     1      10.166  32.507  22.548  1.00  0.00     0.000 C 
BRANCH   3   4
ATOM      4  C   UNL     1       9.785  31.444  21.514  1.00  0.00     0.000 C 
BRANCH   4   5
ATOM      5  C   UNL     1      10.350  31.783  20.134  1.00  0.00     0.000 C 
BRANCH   5   6
ATOM      6  C   UNL     1       9.305  31.740  19.012  1.00  0.00     0.006 C 
BRANCH   6   7
ATOM      7  C   UNL     1       9.624  30.757  17.886  1.00  0.00     0.053 C 
BRANCH   7   8
ATOM      8  C   UNL     1       8.436  29.967  17.394  1.00  0.00     0.041 C 
ATOM      9  O   UNL     1       8.095  29.906  16.220  1.00  0.00    -0.550 OA
ATOM     10  O   UNL     1       7.760  29.354  18.396  1.00  0.00    -0.550 OA
ENDBRANCH   7   8
ENDBRANCH   6   7
ENDBRANCH   5   6
ENDBRANCH   4   5
ENDBRANCH   3   4
ENDBRANCH   2   3
ENDBRANCH   1   2
BRANCH   1  11
ATOM     11  C   UNL     1       6.425  33.403  22.769  1.00  0.00     0.000 C 
BRANCH  11  12
ATOM     12  C   UNL     1       5.489  32.528  21.931  1.00  0.00    -0.000 C 
BRANCH  12  13
ATOM     13  C   UNL     1       6.201  31.984  20.691  1.00  0.00    -0.000 C 
BRANCH  13  14
ATOM     14  C   UNL     1       5.244  31.567  19.571  1.00  0.00    -0.000 C 
BRANCH  14  15
ATOM     15  C   UNL     1       5.542  32.144  18.182  1.00  0.00    -0.000 C 
BRANCH  15  16
ATOM     16  C   UNL     1       4.366  32.031  17.207  1.00  0.00    -0.000 C 
BRANCH  16  17
ATOM     17  C   UNL     1       3.859  33.388  16.711  1.00  0.00    -0.003 C 
ATOM     18  C   UNL     1       4.971  34.366  16.367  1.00  0.00     0.004 C 
ENDBRANCH  16  17
ENDBRANCH  15  16
ENDBRANCH  14  15
ENDBRANCH  13  14
ENDBRANCH  12  13
ENDBRANCH  11  12
ENDBRANCH   1  11
TORSDOF 14
ENDMDL
MODEL 3
REMARK VINA RESULT:    -5.758      1.976      3.735
REMARK INTER + INTRA:         -12.456
REMARK INTER:                 -10.752
REMARK INTRA:                  -1.704
REMARK UNBOUND:                -1.986
REMARK SMILES CCCCCCCCCCCCCCCC(=O)[O-]
REMARK SMILES IDX 9 1 10 2 11 3 12 4 13 5 14 6 15 7 16 8 17 9 18 10 8 11 7 12
REMARK SMILES IDX 6 13 5 14 4 15 3 16 2 17 1 18
REMARK H PARENT
REMARK INDEX MAP 4 1 6 2 8 3 10 4 12 5 14 6 16 7 18 8 2 9 1 10 3 11 5 12 7 13
REMARK INDEX MAP 9 14 11 15 13 16 15 17 17 18
ROOT
ATOM      1  C   UNL     1       8.983  32.030  16.236  1.00  0.00     0.000 C 
ENDROOT
BRANCH   1   2
ATOM      2  C   UNL     1       9.180  32.446  17.697  1.00  0.00     0.000 C 
BRANCH   2   3
ATOM      3  C   UNL     1      10.633  32.533  18.178  1.00  0.00     0.000 C 
BRANCH   3   4
ATOM      4  C   UNL     1      10.945  31.602  19.353  1.00  0.00     0.000 C 
BRANCH   4   5
ATOM      5  C   UNL     1       9.823  31.620  20.392  1.00  0.00     0.000 C 
BRANCH   5   6
ATOM      6  C   UNL     1      10.302  31.945  21.812  1.00  0.00     0.006 C 
BRANCH   6   7
ATOM      7  C   UNL     1      11.740  31.521  22.109  1.00  0.00     0.053 C 
BRANCH   7   8
ATOM      8  C   UNL     1      12.314  32.108  23.375  1.00  0.00     0.041 C 
ATOM      9  O   UNL     1      13.483  32.448  23.500  1.00  0.00    -0.550 OA
ATOM     10  O   UNL     1      11.405  32.191  24.377  1.00  0.00    -0.550 OA
ENDBRANCH   7   8
ENDBRANCH   6   7
ENDBRANCH   5   6
ENDBRANCH   4   5
ENDBRANCH   3   4
ENDBRANCH   2   3
ENDBRANCH   1   2
BRANCH   1  11
ATOM     11  C   UNL     1       8.162  30.750  16.067  1.00  0.00     0.000 C 
BRANCH  11  12
ATOM     12  C   UNL     1       8.472  29.748  17.182  1.00  0.00    -0.000 C 
BRANCH  12  13
ATOM     13  C   UNL     1       7.201  29.341  17.930  1.00  0.00    -0.000 C 
BRANCH  13  14
ATOM     14  C   UNL     1       5.947  30.080  17.452  1.00  0.00    -0.000 C 
BRANCH  14  15
ATOM     15  C   UNL     1       5.112  30.762  18.542  1.00  0.00    -0.000 C 
BRANCH  15  16
ATOM     16  C   UNL     1       5.397  32.261  18.682  1.00  0.00    -0.000 C 
BRANCH  16  17
ATOM     17  C   UNL     1       5.359  33.011  17.347  1.00  0.00    -0.003 C 
ATOM     18  C   UNL     1       3.952  33.319  16.861  1.00  0.00     0.004 C 
ENDBRANCH  16  17
ENDBRANCH  15  16
ENDBRANCH  14  15
ENDBRANCH  13  14
ENDBRANCH  12  13
ENDBRANCH  11  12
ENDBRANCH   1  11
TORSDOF 14
ENDMDL
MODEL 4
REMARK VINA RESULT:    -5.708      1.359      3.859
REMARK INTER + INTRA:         -12.365
REMARK INTER:                 -10.965
REMARK INTRA:                  -1.400
REMARK UNBOUND:                -1.986
REMARK SMILES CCCCCCCCCCCCCCCC(=O)[O-]
REMARK SMILES IDX 9 1 10 2 11 3 12 4 13 5 14 6 15 7 16 8 17 9 18 10 8 11 7 12
REMARK SMILES IDX 6 13 5 14 4 15 3 16 2 17 1 18
REMARK H PARENT
REMARK INDEX MAP 4 1 6 2 8 3 10 4 12 5 14 6 16 7 18 8 2 9 1 10 3 11 5 12 7 13
REMARK INDEX MAP 9 14 11 15 13 16 15 17 17 18
ROOT
ATOM      1  C   UNL     1       8.389  30.832  16.289  1.00  0.00     0.000 C 
ENDROOT
BRANCH   1   2
ATOM      2  C   UNL     1       9.312  31.891  16.899  1.00  0.00     0.000 C 
BRANCH   2   3
ATOM      3  C   UNL     1       9.090  32.196  18.385  1.00  0.00     0.000 C 
BRANCH   3   4
ATOM      4  C   UNL     1      10.288  31.838  19.269  1.00  0.00     0.000 C 
BRANCH   4   5
ATOM      5  C   UNL     1       9.912  31.857  20.751  1.00  0.00     0.000 C 
BRANCH   5   6
ATOM      6  C   UNL     1      11.031  31.368  21.679  1.00  0.00     0.006 C 
BRANCH   6   7
ATOM      7  C   UNL     1      10.937  31.885  23.114  1.00  0.00     0.053 C 
BRANCH   7   8
ATOM      8  C   UNL     1      12.266  32.227  23.741  1.00  0.00     0.041 C 
ATOM      9  O   UNL     1      12.386  32.821  24.805  1.00  0.00    -0.550 OA
ATOM     10  O   UNL     1      13.321  31.837  22.986  1.00  0.00    -0.550 OA
ENDBRANCH   7   8
ENDBRANCH   6   7
ENDBRANCH   5   6
ENDBRANCH   4   5
ENDBRANCH   3   4
ENDBRANCH   2   3
ENDBRANCH   1   2
BRANCH   1  11
ATOM     11  C   UNL     1       8.287  29.552  17.122  1.00  0.00     0.000 C 
BRANCH  11  12
ATOM     12  C   UNL     1       6.841  29.285  17.545  1.00  0.00    -0.000 C 
BRANCH  12  13
ATOM     13  C   UNL     1       5.891  30.333  16.962  1.00  0.00    -0.000 C 
BRANCH  13  14
ATOM     14  C   UNL     1       4.955  30.955  18.003  1.00  0.00    -0.000 C 
BRANCH  14  15
ATOM     15  C   UNL     1       5.582  32.004  18.930  1.00  0.00    -0.000 C 
BRANCH  15  16
ATOM     16  C   UNL     1       5.317  31.743  20.415  1.00  0.00    -0.000 C 
BRANCH  16  17
ATOM     17  C   UNL     1       6.352  32.392  21.338  1.00  0.00    -0.003 C 
ATOM     18  C   UNL     1       5.755  32.978  22.608  1.00  0.00     0.004 C 
ENDBRANCH  16  17
ENDBRANCH  15  16
ENDBRANCH  14  15
ENDBRANCH  13  14
ENDBRANCH  12  13
ENDBRANCH  11  12
ENDBRANCH   1  11
TORSDOF 14
ENDMDL
MODEL 5
REMARK VINA RESULT:    -5.581      1.349      4.988
REMARK INTER + INTRA:         -12.134
REMARK INTER:                 -10.442
REMARK INTRA:                  -1.692
REMARK UNBOUND:                -1.986
REMARK SMILES CCCCCCCCCCCCCCCC(=O)[O-]
REMARK SMILES IDX 9 1 10 2 11 3 12 4 13 5 14 6 15 7 16 8 17 9 18 10 8 11 7 12
REMARK SMILES IDX 6 13 5 14 4 15 3 16 2 17 1 18
REMARK H PARENT
REMARK INDEX MAP 4 1 6 2 8 3 10 4 12 5 14 6 16 7 18 8 2 9 1 10 3 11 5 12 7 13
REMARK INDEX MAP 9 14 11 15 13 16 15 17 17 18
ROOT
ATOM      1  C   UNL     1       5.305  30.834  18.353  1.00  0.00     0.000 C 
ENDROOT
BRANCH   1   2
ATOM      2  C   UNL     1       6.361  29.807  18.775  1.00  0.00     0.000 C 
BRANCH   2   3
ATOM      3  C   UNL     1       7.395  29.433  17.707  1.00  0.00     0.000 C 
BRANCH   3   4
ATOM      4  C   UNL     1       7.366  30.348  16.480  1.00  0.00     0.000 C 
BRANCH   4   5
ATOM      5  C   UNL     1       8.701  31.071  16.292  1.00  0.00     0.000 C 
BRANCH   5   6
ATOM      6  C   UNL     1       8.712  32.501  16.846  1.00  0.00     0.006 C 
BRANCH   6   7
ATOM      7  C   UNL     1       8.721  32.590  18.372  1.00  0.00     0.053 C 
BRANCH   7   8
ATOM      8  C   UNL     1       9.858  31.850  19.032  1.00  0.00     0.041 C 
ATOM      9  O   UNL     1       9.708  31.005  19.905  1.00  0.00    -0.550 OA
ATOM     10  O   UNL     1      11.075  32.243  18.581  1.00  0.00    -0.550 OA
ENDBRANCH   7   8
ENDBRANCH   6   7
ENDBRANCH   5   6
ENDBRANCH   4   5
ENDBRANCH   3   4
ENDBRANCH   2   3
ENDBRANCH   1   2
BRANCH   1  11
ATOM     11  C   UNL     1       5.175  32.013  19.320  1.00  0.00     0.000 C 
BRANCH  11  12
ATOM     12  C   UNL     1       6.042  31.802  20.564  1.00  0.00    -0.000 C 
BRANCH  12  13
ATOM     13  C   UNL     1       5.421  32.471  21.791  1.00  0.00    -0.000 C 
BRANCH  13  14
ATOM     14  C   UNL     1       6.418  33.299  22.607  1.00  0.00    -0.000 C 
BRANCH  14  15
ATOM     15  C   UNL     1       7.847  33.365  22.054  1.00  0.00    -0.000 C 
BRANCH  15  16
ATOM     16  C   UNL     1       8.918  33.486  23.142  1.00  0.00    -0.000 C 
BRANCH  16  17
ATOM     17  C   UNL     1      10.108  32.545  22.928  1.00  0.00    -0.003 C 
ATOM     18  C   UNL     1      10.900  32.267  24.195  1.00  0.00     0.004 C 
ENDBRANCH  16  17
ENDBRANCH  15  16
ENDBRANCH  14  15
ENDBRANCH  13  14
ENDBRANCH  12  13
ENDBRANCH  11  12
ENDBRANCH   1  11
TORSDOF 14
ENDMDL
MODEL 6
REMARK VINA RESULT:    -5.575      1.452      2.126
REMARK INTER + INTRA:         -12.124
REMARK INTER:                 -10.744
REMARK INTRA:                  -1.381
REMARK UNBOUND:                -1.986
REMARK SMILES CCCCCCCCCCCCCCCC(=O)[O-]
REMARK SMILES IDX 9 1 10 2 11 3 12 4 13 5 14 6 15 7 16 8 17 9 18 10 8 11 7 12
REMARK SMILES IDX 6 13 5 14 4 15 3 16 2 17 1 18
REMARK H PARENT
REMARK INDEX MAP 4 1 6 2 8 3 10 4 12 5 14 6 16 7 18 8 2 9 1 10 3 11 5 12 7 13
REMARK INDEX MAP 9 14 11 15 13 16 15 17 17 18
ROOT
ATOM      1  C   UNL     1       5.686  32.154  20.643  1.00  0.00     0.000 C 
ENDROOT
BRANCH   1   2
ATOM      2  C   UNL     1       7.174  32.269  20.984  1.00  0.00     0.000 C 
BRANCH   2   3
ATOM      3  C   UNL     1       8.130  31.472  20.088  1.00  0.00     0.000 C 
BRANCH   3   4
ATOM      4  C   UNL     1       9.606  31.811  20.314  1.00  0.00     0.000 C 
BRANCH   4   5
ATOM      5  C   UNL     1      10.077  31.359  21.697  1.00  0.00     0.000 C 
BRANCH   5   6
ATOM      6  C   UNL     1      10.229  32.507  22.703  1.00  0.00     0.006 C 
BRANCH   6   7
ATOM      7  C   UNL     1      10.907  32.115  24.015  1.00  0.00     0.053 C 
BRANCH   7   8
ATOM      8  C   UNL     1      12.400  32.329  24.033  1.00  0.00     0.041 C 
ATOM      9  O   UNL     1      13.176  31.791  23.254  1.00  0.00    -0.550 OA
ATOM     10  O   UNL     1      12.802  33.156  25.029  1.00  0.00    -0.550 OA
ENDBRANCH   7   8
ENDBRANCH   6   7
ENDBRANCH   5   6
ENDBRANCH   4   5
ENDBRANCH   3   4
ENDBRANCH   2   3
ENDBRANCH   1   2
BRANCH   1  11
ATOM     11  C   UNL     1       5.365  31.018  19.669  1.00  0.00     0.000 C 
BRANCH  11  12
ATOM     12  C   UNL     1       4.771  31.562  18.367  1.00  0.00    -0.000 C 
BRANCH  12  13
ATOM     13  C   UNL     1       5.151  30.681  17.175  1.00  0.00    -0.000 C 
BRANCH  13  14
ATOM     14  C   UNL     1       6.361  29.781  17.441  1.00  0.00    -0.000 C 
BRANCH  14  15
ATOM     15  C   UNL     1       7.505  29.874  16.423  1.00  0.00    -0.000 C 
BRANCH  15  16
ATOM     16  C   UNL     1       8.613  30.847  16.836  1.00  0.00    -0.000 C 
BRANCH  16  17
ATOM     17  C   UNL     1       8.299  32.305  16.488  1.00  0.00    -0.003 C 
ATOM     18  C   UNL     1       9.438  33.264  16.796  1.00  0.00     0.004 C 
ENDBRANCH  16  17
ENDBRANCH  15  16
ENDBRANCH  14  15
ENDBRANCH  13  14
ENDBRANCH  12  13
ENDBRANCH  11  12
ENDBRANCH   1  11
TORSDOF 14
ENDMDL
MODEL 7
REMARK VINA RESULT:    -5.492      2.378      6.131
REMARK INTER + INTRA:         -11.974
REMARK INTER:                 -10.541
REMARK INTRA:                  -1.433
REMARK UNBOUND:                -1.986
REMARK SMILES CCCCCCCCCCCCCCCC(=O)[O-]
REMARK SMILES IDX 9 1 10 2 11 3 12 4 13 5 14 6 15 7 16 8 17 9 18 10 8 11 7 12
REMARK SMILES IDX 6 13 5 14 4 15 3 16 2 17 1 18
REMARK H PARENT
REMARK INDEX MAP 4 1 6 2 8 3 10 4 12 5 14 6 16 7 18 8 2 9 1 10 3 11 5 12 7 13
REMARK INDEX MAP 9 14 11 15 13 16 15 17 17 18
ROOT
ATOM      1  C   UNL     1      10.485  31.866  19.019  1.00  0.00     0.000 C 
ENDROOT
BRANCH   1   2
ATOM      2  C   UNL     1      10.629  32.943  17.939  1.00  0.00     0.000 C 
BRANCH   2   3
ATOM      3  C   UNL     1      10.183  32.541  16.529  1.00  0.00     0.000 C 
BRANCH   3   4
ATOM      4  C   UNL     1       8.735  32.047  16.461  1.00  0.00     0.000 C 
BRANCH   4   5
ATOM      5  C   UNL     1       7.771  33.067  17.068  1.00  0.00     0.000 C 
BRANCH   5   6
ATOM      6  C   UNL     1       6.664  32.437  17.923  1.00  0.00     0.006 C 
BRANCH   6   7
ATOM      7  C   UNL     1       7.117  31.252  18.775  1.00  0.00     0.053 C 
BRANCH   7   8
ATOM      8  C   UNL     1       6.419  29.953  18.456  1.00  0.00     0.041 C 
ATOM      9  O   UNL     1       5.379  29.876  17.815  1.00  0.00    -0.550 OA
ATOM     10  O   UNL     1       7.046  28.874  18.986  1.00  0.00    -0.550 OA
ENDBRANCH   7   8
ENDBRANCH   6   7
ENDBRANCH   5   6
ENDBRANCH   4   5
ENDBRANCH   3   4
ENDBRANCH   2   3
ENDBRANCH   1   2
BRANCH   1  11
ATOM     11  C   UNL     1      11.786  31.572  19.770  1.00  0.00     0.000 C 
BRANCH  11  12
ATOM     12  C   UNL     1      11.520  31.340  21.260  1.00  0.00    -0.000 C 
BRANCH  12  13
ATOM     13  C   UNL     1      10.104  31.775  21.643  1.00  0.00    -0.000 C 
BRANCH  13  14
ATOM     14  C   UNL     1      10.038  32.544  22.966  1.00  0.00    -0.000 C 
BRANCH  14  15
ATOM     15  C   UNL     1       8.861  33.515  23.121  1.00  0.00    -0.000 C 
BRANCH  15  16
ATOM     16  C   UNL     1       7.768  33.324  22.066  1.00  0.00    -0.000 C 
BRANCH  16  17
ATOM     17  C   UNL     1       6.354  33.313  22.654  1.00  0.00    -0.003 C 
ATOM     18  C   UNL     1       5.378  32.441  21.880  1.00  0.00     0.004 C 
ENDBRANCH  16  17
ENDBRANCH  15  16
ENDBRANCH  14  15
ENDBRANCH  13  14
ENDBRANCH  12  13
ENDBRANCH  11  12
ENDBRANCH   1  11
TORSDOF 14
ENDMDL
MODEL 8
REMARK VINA RESULT:    -5.385      2.612      6.125
REMARK INTER + INTRA:         -11.778
REMARK INTER:                 -10.439
REMARK INTRA:                  -1.339
REMARK UNBOUND:                -1.986
REMARK SMILES CCCCCCCCCCCCCCCC(=O)[O-]
REMARK SMILES IDX 9 1 10 2 11 3 12 4 13 5 14 6 15 7 16 8 17 9 18 10 8 11 7 12
REMARK SMILES IDX 6 13 5 14 4 15 3 16 2 17 1 18
REMARK H PARENT
REMARK INDEX MAP 4 1 6 2 8 3 10 4 12 5 14 6 16 7 18 8 2 9 1 10 3 11 5 12 7 13
REMARK INDEX MAP 9 14 11 15 13 16 15 17 17 18
ROOT
ATOM      1  C   UNL     1       8.561  33.336  18.141  1.00  0.00     0.000 C 
ENDROOT
BRANCH   1   2
ATOM      2  C   UNL     1       7.582  33.097  16.987  1.00  0.00     0.000 C 
BRANCH   2   3
ATOM      3  C   UNL     1       6.153  33.607  17.205  1.00  0.00     0.000 C 
BRANCH   3   4
ATOM      4  C   UNL     1       5.121  32.488  17.368  1.00  0.00     0.000 C 
BRANCH   4   5
ATOM      5  C   UNL     1       5.222  31.833  18.746  1.00  0.00     0.000 C 
BRANCH   5   6
ATOM      6  C   UNL     1       5.757  30.396  18.709  1.00  0.00     0.006 C 
BRANCH   6   7
ATOM      7  C   UNL     1       5.990  29.842  17.303  1.00  0.00     0.053 C 
BRANCH   7   8
ATOM      8  C   UNL     1       7.417  29.447  17.018  1.00  0.00     0.041 C 
ATOM      9  O   UNL     1       8.069  29.877  16.075  1.00  0.00    -0.550 OA
ATOM     10  O   UNL     1       7.898  28.535  17.898  1.00  0.00    -0.550 OA
ENDBRANCH   7   8
ENDBRANCH   6   7
ENDBRANCH   5   6
ENDBRANCH   4   5
ENDBRANCH   3   4
ENDBRANCH   2   3
ENDBRANCH   1   2
BRANCH   1  11
ATOM     11  C   UNL     1       9.250  32.062  18.635  1.00  0.00     0.000 C 
BRANCH  11  12
ATOM     12  C   UNL     1       8.920  31.795  20.106  1.00  0.00    -0.000 C 
BRANCH  12  13
ATOM     13  C   UNL     1      10.190  31.563  20.926  1.00  0.00    -0.000 C 
BRANCH  13  14
ATOM     14  C   UNL     1      10.307  32.482  22.145  1.00  0.00    -0.000 C 
BRANCH  14  15
ATOM     15  C   UNL     1      10.739  31.811  23.454  1.00  0.00    -0.000 C 
BRANCH  15  16
ATOM     16  C   UNL     1      12.138  32.223  23.920  1.00  0.00    -0.000 C 
BRANCH  16  17
ATOM     17  C   UNL     1      12.136  32.963  25.261  1.00  0.00    -0.003 C 
ATOM     18  C   UNL     1      10.747  33.159  25.847  1.00  0.00     0.004 C 
ENDBRANCH  16  17
ENDBRANCH  15  16
ENDBRANCH  14  15
ENDBRANCH  13  14
ENDBRANCH  12  13
ENDBRANCH  11  12
ENDBRANCH   1  11
TORSDOF 14
ENDMDL
MODEL 9
REMARK VINA RESULT:    -5.378      3.061      7.236
REMARK INTER + INTRA:         -11.765
REMARK INTER:                 -10.705
REMARK INTRA:                  -1.061
REMARK UNBOUND:                -1.986
REMARK SMILES CCCCCCCCCCCCCCCC(=O)[O-]
REMARK SMILES IDX 9 1 10 2 11 3 12 4 13 5 14 6 15 7 16 8 17 9 18 10 8 11 7 12
REMARK SMILES IDX 6 13 5 14 4 15 3 16 2 17 1 18
REMARK H PARENT
REMARK INDEX MAP 4 1 6 2 8 3 10 4 12 5 14 6 16 7 18 8 2 9 1 10 3 11 5 12 7 13
REMARK INDEX MAP 9 14 11 15 13 16 15 17 17 18
ROOT
ATOM      1  C   UNL     1       9.631  31.903  19.856  1.00  0.00     0.000 C 
ENDROOT
BRANCH   1   2
ATOM      2  C   UNL     1      10.801  31.765  18.876  1.00  0.00     0.000 C 
BRANCH   2   3
ATOM      3  C   UNL     1      10.803  32.742  17.694  1.00  0.00     0.000 C 
BRANCH   3   4
ATOM      4  C   UNL     1       9.400  33.148  17.233  1.00  0.00     0.000 C 
BRANCH   4   5
ATOM      5  C   UNL     1       8.940  32.306  16.042  1.00  0.00     0.000 C 
BRANCH   5   6
ATOM      6  C   UNL     1       8.177  31.037  16.441  1.00  0.00     0.006 C 
BRANCH   6   7
ATOM      7  C   UNL     1       7.025  31.271  17.418  1.00  0.00     0.053 C 
BRANCH   7   8
ATOM      8  C   UNL     1       6.509  30.019  18.085  1.00  0.00     0.041 C 
ATOM      9  O   UNL     1       7.149  29.365  18.898  1.00  0.00    -0.550 OA
ATOM     10  O   UNL     1       5.269  29.671  17.664  1.00  0.00    -0.550 OA
ENDBRANCH   7   8
ENDBRANCH   6   7
ENDBRANCH   5   6
ENDBRANCH   4   5
ENDBRANCH   3   4
ENDBRANCH   2   3
ENDBRANCH   1   2
BRANCH   1  11
ATOM     11  C   UNL     1       9.963  31.437  21.276  1.00  0.00     0.000 C 
BRANCH  11  12
ATOM     12  C   UNL     1      11.460  31.569  21.562  1.00  0.00    -0.000 C 
BRANCH  12  13
ATOM     13  C   UNL     1      11.714  31.955  23.020  1.00  0.00    -0.000 C 
BRANCH  13  14
ATOM     14  C   UNL     1      10.491  32.565  23.712  1.00  0.00    -0.000 C 
BRANCH  14  15
ATOM     15  C   UNL     1      10.591  32.727  25.234  1.00  0.00    -0.000 C 
BRANCH  15  16
ATOM     16  C   UNL     1      11.990  33.122  25.715  1.00  0.00    -0.000 C 
BRANCH  16  17
ATOM     17  C   UNL     1      11.988  33.811  27.083  1.00  0.00    -0.003 C 
ATOM     18  C   UNL     1      12.628  35.190  27.072  1.00  0.00     0.004 C 
ENDBRANCH  16  17
ENDBRANCH  15  16
ENDBRANCH  14  15
ENDBRANCH  13  14
ENDBRANCH  12  13
ENDBRANCH  11  12
ENDBRANCH   1  11
TORSDOF 14
ENDMDL
MODEL 10
REMARK VINA RESULT:    -5.362      2.020      3.929
REMARK INTER + INTRA:         -11.737
REMARK INTER:                 -10.571
REMARK INTRA:                  -1.166
REMARK UNBOUND:                -1.986
REMARK SMILES CCCCCCCCCCCCCCCC(=O)[O-]
REMARK SMILES IDX 9 1 10 2 11 3 12 4 13 5 14 6 15 7 16 8 17 9 18 10 8 11 7 12
REMARK SMILES IDX 6 13 5 14 4 15 3 16 2 17 1 18
REMARK H PARENT
REMARK INDEX MAP 4 1 6 2 8 3 10 4 12 5 14 6 16 7 18 8 2 9 1 10 3 11 5 12 7 13
REMARK INDEX MAP 9 14 11 15 13 16 15 17 17 18
ROOT
ATOM      1  C   UNL     1       7.811  33.433  22.148  1.00  0.00     0.000 C 
ENDROOT
BRANCH   1   2
ATOM      2  C   UNL     1       8.973  33.453  23.146  1.00  0.00     0.000 C 
BRANCH   2   3
ATOM      3  C   UNL     1      10.078  32.418  22.906  1.00  0.00     0.000 C 
BRANCH   3   4
ATOM      4  C   UNL     1      10.444  32.244  21.429  1.00  0.00     0.000 C 
BRANCH   4   5
ATOM      5  C   UNL     1       9.515  31.243  20.740  1.00  0.00     0.000 C 
BRANCH   5   6
ATOM      6  C   UNL     1       9.390  31.458  19.226  1.00  0.00     0.006 C 
BRANCH   6   7
ATOM      7  C   UNL     1      10.561  32.208  18.594  1.00  0.00     0.053 C 
BRANCH   7   8
ATOM      8  C   UNL     1      10.203  32.991  17.354  1.00  0.00     0.041 C 
ATOM      9  O   UNL     1      10.866  32.980  16.325  1.00  0.00    -0.550 OA
ATOM     10  O   UNL     1       9.084  33.740  17.509  1.00  0.00    -0.550 OA
ENDBRANCH   7   8
ENDBRANCH   6   7
ENDBRANCH   5   6
ENDBRANCH   4   5
ENDBRANCH   3   4
ENDBRANCH   2   3
ENDBRANCH   1   2
BRANCH   1  11
ATOM     11  C   UNL     1       6.432  33.391  22.811  1.00  0.00     0.000 C 
BRANCH  11  12
ATOM     12  C   UNL     1       5.451  32.553  21.987  1.00  0.00    -0.000 C 
BRANCH  12  13
ATOM     13  C   UNL     1       6.056  32.160  20.638  1.00  0.00    -0.000 C 
BRANCH  13  14
ATOM     14  C   UNL     1       5.147  31.256  19.801  1.00  0.00    -0.000 C 
BRANCH  14  15
ATOM     15  C   UNL     1       4.847  31.739  18.377  1.00  0.00    -0.000 C 
BRANCH  15  16
ATOM     16  C   UNL     1       5.141  30.689  17.301  1.00  0.00    -0.000 C 
BRANCH  16  17
ATOM     17  C   UNL     1       6.290  29.747  17.672  1.00  0.00    -0.003 C 
ATOM     18  C   UNL     1       7.414  29.723  16.649  1.00  0.00     0.004 C 
ENDBRANCH  16  17
ENDBRANCH  15  16
ENDBRANCH  14  15
ENDBRANCH  13  14
ENDBRANCH  12  13
ENDBRANCH  11  12
ENDBRANCH   1  11
TORSDOF 14
ENDMDL
MODEL 11
REMARK VINA RESULT:    -5.360      3.109      4.776
REMARK INTER + INTRA:         -11.733
REMARK INTER:                 -10.760
REMARK INTRA:                  -0.973
REMARK UNBOUND:                -1.986
REMARK SMILES CCCCCCCCCCCCCCCC(=O)[O-]
REMARK SMILES IDX 9 1 10 2 11 3 12 4 13 5 14 6 15 7 16 8 17 9 18 10 8 11 7 12
REMARK SMILES IDX 6 13 5 14 4 15 3 16 2 17 1 18
REMARK H PARENT
REMARK INDEX MAP 4 1 6 2 8 3 10 4 12 5 14 6 16 7 18 8 2 9 1 10 3 11 5 12 7 13
REMARK INDEX MAP 9 14 11 15 13 16 15 17 17 18
ROOT
ATOM      1  C   UNL     1      10.156  31.414  21.070  1.00  0.00     0.000 C 
ENDROOT
BRANCH   1   2
ATOM      2  C   UNL     1      10.329  31.892  22.515  1.00  0.00     0.000 C 
BRANCH   2   3
ATOM      3  C   UNL     1      11.775  32.096  22.984  1.00  0.00     0.000 C 
BRANCH   3   4
ATOM      4  C   UNL     1      11.898  32.377  24.484  1.00  0.00     0.000 C 
BRANCH   4   5
ATOM      5  C   UNL     1      10.554  32.789  25.086  1.00  0.00     0.000 C 
BRANCH   5   6
ATOM      6  C   UNL     1      10.676  33.795  26.237  1.00  0.00     0.006 C 
BRANCH   6   7
ATOM      7  C   UNL     1      12.092  34.320  26.474  1.00  0.00     0.053 C 
BRANCH   7   8
ATOM      8  C   UNL     1      12.633  34.050  27.856  1.00  0.00     0.041 C 
ATOM      9  O   UNL     1      12.939  34.928  28.653  1.00  0.00    -0.550 OA
ATOM     10  O   UNL     1      12.780  32.728  28.116  1.00  0.00    -0.550 OA
ENDBRANCH   7   8
ENDBRANCH   6   7
ENDBRANCH   5   6
ENDBRANCH   4   5
ENDBRANCH   3   4
ENDBRANCH   2   3
ENDBRANCH   1   2
BRANCH   1  11
ATOM     11  C   UNL     1       8.905  31.970  20.386  1.00  0.00     0.000 C 
BRANCH  11  12
ATOM     12  C   UNL     1       9.108  32.077  18.873  1.00  0.00    -0.000 C 
BRANCH  12  13
ATOM     13  C   UNL     1       8.913  30.722  18.190  1.00  0.00    -0.000 C 
BRANCH  13  14
ATOM     14  C   UNL     1       8.014  30.785  16.952  1.00  0.00    -0.000 C 
BRANCH  14  15
ATOM     15  C   UNL     1       7.024  29.626  16.780  1.00  0.00    -0.000 C 
BRANCH  15  16
ATOM     16  C   UNL     1       5.606  29.959  17.255  1.00  0.00    -0.000 C 
BRANCH  16  17
ATOM     17  C   UNL     1       5.463  31.391  17.777  1.00  0.00    -0.003 C 
ATOM     18  C   UNL     1       5.231  31.473  19.277  1.00  0.00     0.004 C 
ENDBRANCH  16  17
ENDBRANCH  15  16
ENDBRANCH  14  15
ENDBRANCH  13  14
ENDBRANCH  12  13
ENDBRANCH  11  12
ENDBRANCH   1  11
TORSDOF 14
ENDMDL
MODEL 12
REMARK VINA RESULT:    -5.348      3.122      6.329
REMARK INTER + INTRA:         -11.712
REMARK INTER:                 -10.103
REMARK INTRA:                  -1.609
REMARK UNBOUND:                -1.986
REMARK SMILES CCCCCCCCCCCCCCCC(=O)[O-]
REMARK SMILES IDX 9 1 10 2 11 3 12 4 13 5 14 6 15 7 16 8 17 9 18 10 8 11 7 12
REMARK SMILES IDX 6 13 5 14 4 15 3 16 2 17 1 18
REMARK H PARENT
REMARK INDEX MAP 4 1 6 2 8 3 10 4 12 5 14 6 16 7 18 8 2 9 1 10 3 11 5 12 7 13
REMARK INDEX MAP 9 14 11 15 13 16 15 17 17 18
ROOT
ATOM      1  C   UNL     1       8.461  31.630  16.347  1.00  0.00     0.000 C 
ENDROOT
BRANCH   1   2
ATOM      2  C   UNL     1       8.272  30.114  16.457  1.00  0.00     0.000 C 
BRANCH   2   3
ATOM      3  C   UNL     1       7.654  29.610  17.766  1.00  0.00     0.000 C 
BRANCH   3   4
ATOM      4  C   UNL     1       6.185  30.004  17.941  1.00  0.00     0.000 C 
BRANCH   4   5
ATOM      5  C   UNL     1       6.010  31.005  19.084  1.00  0.00     0.000 C 
BRANCH   5   6
ATOM      6  C   UNL     1       4.914  32.048  18.829  1.00  0.00     0.006 C 
BRANCH   6   7
ATOM      7  C   UNL     1       4.570  32.259  17.355  1.00  0.00     0.053 C 
BRANCH   7   8
ATOM      8  C   UNL     1       5.145  33.519  16.756  1.00  0.00     0.041 C 
ATOM      9  O   UNL     1       6.176  34.051  17.144  1.00  0.00    -0.550 OA
ATOM     10  O   UNL     1       4.378  34.025  15.759  1.00  0.00    -0.550 OA
ENDBRANCH   7   8
ENDBRANCH   6   7
ENDBRANCH   5   6
ENDBRANCH   4   5
ENDBRANCH   3   4
ENDBRANCH   2   3
ENDBRANCH   1   2
BRANCH   1  11
ATOM     11  C   UNL     1       9.059  32.267  17.604  1.00  0.00     0.000 C 
BRANCH  11  12
ATOM     12  C   UNL     1      10.564  31.999  17.693  1.00  0.00    -0.000 C 
BRANCH  12  13
ATOM     13  C   UNL     1      11.003  31.784  19.143  1.00  0.00    -0.000 C 
BRANCH  13  14
ATOM     14  C   UNL     1       9.833  31.633  20.120  1.00  0.00    -0.000 C 
BRANCH  14  15
ATOM     15  C   UNL     1      10.204  31.556  21.606  1.00  0.00    -0.000 C 
BRANCH  15  16
ATOM     16  C   UNL     1      11.703  31.360  21.852  1.00  0.00    -0.000 C 
BRANCH  16  17
ATOM     17  C   UNL     1      12.214  32.098  23.093  1.00  0.00    -0.003 C 
ATOM     18  C   UNL     1      11.192  32.182  24.216  1.00  0.00     0.004 C 
ENDBRANCH  16  17
ENDBRANCH  15  16
ENDBRANCH  14  15
ENDBRANCH  13  14
ENDBRANCH  12  13
ENDBRANCH  11  12
ENDBRANCH   1  11
TORSDOF 14
ENDMDL
MODEL 13
REMARK VINA RESULT:    -5.321      3.243      6.669
REMARK INTER + INTRA:         -11.661
REMARK INTER:                 -10.262
REMARK INTRA:                  -1.399
REMARK UNBOUND:                -1.986
REMARK SMILES CCCCCCCCCCCCCCCC(=O)[O-]
REMARK SMILES IDX 9 1 10 2 11 3 12 4 13 5 14 6 15 7 16 8 17 9 18 10 8 11 7 12
REMARK SMILES IDX 6 13 5 14 4 15 3 16 2 17 1 18
REMARK H PARENT
REMARK INDEX MAP 4 1 6 2 8 3 10 4 12 5 14 6 16 7 18 8 2 9 1 10 3 11 5 12 7 13
REMARK INDEX MAP 9 14 11 15 13 16 15 17 17 18
ROOT
ATOM      1  C   UNL     1       9.379  32.957  17.403  1.00  0.00     0.000 C 
ENDROOT
BRANCH   1   2
ATOM      2  C   UNL     1       9.177  32.521  15.949  1.00  0.00     0.000 C 
BRANCH   2   3
ATOM      3  C   UNL     1       8.564  31.130  15.747  1.00  0.00     0.000 C 
BRANCH   3   4
ATOM      4  C   UNL     1       8.115  30.463  17.050  1.00  0.00     0.000 C 
BRANCH   4   5
ATOM      5  C   UNL     1       6.887  29.579  16.829  1.00  0.00     0.000 C 
BRANCH   5   6
ATOM      6  C   UNL     1       5.561  30.267  17.174  1.00  0.00     0.006 C 
BRANCH   6   7
ATOM      7  C   UNL     1       5.706  31.549  17.994  1.00  0.00     0.053 C 
BRANCH   7   8
ATOM      8  C   UNL     1       5.096  32.771  17.353  1.00  0.00     0.041 C 
ATOM      9  O   UNL     1       3.898  32.905  17.141  1.00  0.00    -0.550 OA
ATOM     10  O   UNL     1       6.020  33.699  17.003  1.00  0.00    -0.550 OA
ENDBRANCH   7   8
ENDBRANCH   6   7
ENDBRANCH   5   6
ENDBRANCH   4   5
ENDBRANCH   3   4
ENDBRANCH   2   3
ENDBRANCH   1   2
BRANCH   1  11
ATOM     11  C   UNL     1      10.838  32.905  17.863  1.00  0.00     0.000 C 
BRANCH  11  12
ATOM     12  C   UNL     1      11.034  31.845  18.950  1.00  0.00    -0.000 C 
BRANCH  12  13
ATOM     13  C   UNL     1       9.831  31.791  19.894  1.00  0.00    -0.000 C 
BRANCH  13  14
ATOM     14  C   UNL     1      10.193  31.373  21.322  1.00  0.00    -0.000 C 
BRANCH  14  15
ATOM     15  C   UNL     1      11.682  31.436  21.684  1.00  0.00    -0.000 C 
BRANCH  15  16
ATOM     16  C   UNL     1      11.959  32.165  23.002  1.00  0.00    -0.000 C 
BRANCH  16  17
ATOM     17  C   UNL     1      10.925  31.864  24.090  1.00  0.00    -0.003 C 
ATOM     18  C   UNL     1      10.280  33.108  24.679  1.00  0.00     0.004 C 
ENDBRANCH  16  17
ENDBRANCH  15  16
ENDBRANCH  14  15
ENDBRANCH  13  14
ENDBRANCH  12  13
ENDBRANCH  11  12
ENDBRANCH   1  11
TORSDOF 14
ENDMDL
MODEL 14
REMARK VINA RESULT:    -5.304      4.742      9.105
REMARK INTER + INTRA:         -11.631
REMARK INTER:                 -10.714
REMARK INTRA:                  -0.917
REMARK UNBOUND:                -1.986
REMARK SMILES CCCCCCCCCCCCCCCC(=O)[O-]
REMARK SMILES IDX 9 1 10 2 11 3 12 4 13 5 14 6 15 7 16 8 17 9 18 10 8 11 7 12
REMARK SMILES IDX 6 13 5 14 4 15 3 16 2 17 1 18
REMARK H PARENT
REMARK INDEX MAP 4 1 6 2 8 3 10 4 12 5 14 6 16 7 18 8 2 9 1 10 3 11 5 12 7 13
REMARK INDEX MAP 9 14 11 15 13 16 15 17 17 18
ROOT
ATOM      1  C   UNL     1      10.496  32.807  25.045  1.00  0.00     0.000 C 
ENDROOT
BRANCH   1   2
ATOM      2  C   UNL     1      10.569  32.360  23.582  1.00  0.00     0.000 C 
BRANCH   2   3
ATOM      3  C   UNL     1      11.954  31.935  23.079  1.00  0.00     0.000 C 
BRANCH   3   4
ATOM      4  C   UNL     1      11.947  31.402  21.644  1.00  0.00     0.000 C 
BRANCH   4   5
ATOM      5  C   UNL     1      10.601  31.650  20.963  1.00  0.00     0.000 C 
BRANCH   5   6
ATOM      6  C   UNL     1      10.704  31.858  19.447  1.00  0.00     0.006 C 
BRANCH   6   7
ATOM      7  C   UNL     1       9.360  31.976  18.730  1.00  0.00     0.053 C 
BRANCH   7   8
ATOM      8  C   UNL     1       8.457  30.779  18.898  1.00  0.00     0.041 C 
ATOM      9  O   UNL     1       7.672  30.641  19.828  1.00  0.00    -0.550 OA
ATOM     10  O   UNL     1       8.628  29.849  17.927  1.00  0.00    -0.550 OA
ENDBRANCH   7   8
ENDBRANCH   6   7
ENDBRANCH   5   6
ENDBRANCH   4   5
ENDBRANCH   3   4
ENDBRANCH   2   3
ENDBRANCH   1   2
BRANCH   1  11
ATOM     11  C   UNL     1      11.864  33.093  25.668  1.00  0.00     0.000 C 
BRANCH  11  12
ATOM     12  C   UNL     1      11.717  33.811  27.012  1.00  0.00    -0.000 C 
BRANCH  12  13
ATOM     13  C   UNL     1      11.006  32.926  28.037  1.00  0.00    -0.000 C 
BRANCH  13  14
ATOM     14  C   UNL     1      10.515  33.691  29.270  1.00  0.00    -0.000 C 
BRANCH  14  15
ATOM     15  C   UNL     1      11.408  34.844  29.745  1.00  0.00    -0.000 C 
BRANCH  15  16
ATOM     16  C   UNL     1      12.387  34.442  30.852  1.00  0.00    -0.000 C 
BRANCH  16  17
ATOM     17  C   UNL     1      13.847  34.416  30.390  1.00  0.00    -0.003 C 
ATOM     18  C   UNL     1      14.299  33.058  29.876  1.00  0.00     0.004 C 
ENDBRANCH  16  17
ENDBRANCH  15  16
ENDBRANCH  14  15
ENDBRANCH  13  14
ENDBRANCH  12  13
ENDBRANCH  11  12
ENDBRANCH   1  11
TORSDOF 14
ENDMDL
MODEL 15
REMARK VINA RESULT:    -5.284      4.938      6.904
REMARK INTER + INTRA:         -11.595
REMARK INTER:                 -10.665
REMARK INTRA:                  -0.930
REMARK UNBOUND:                -1.986
REMARK SMILES CCCCCCCCCCCCCCCC(=O)[O-]
REMARK SMILES IDX 9 1 10 2 11 3 12 4 13 5 14 6 15 7 16 8 17 9 18 10 8 11 7 12
REMARK SMILES IDX 6 13 5 14 4 15 3 16 2 17 1 18
REMARK H PARENT
REMARK INDEX MAP 4 1 6 2 8 3 10 4 12 5 14 6 16 7 18 8 2 9 1 10 3 11 5 12 7 13
REMARK INDEX MAP 9 14 11 15 13 16 15 17 17 18
ROOT
ATOM      1  C   UNL     1      10.603  32.535  24.628  1.00  0.00     0.000 C 
ENDROOT
BRANCH   1   2
ATOM      2  C   UNL     1      10.765  33.163  26.016  1.00  0.00     0.000 C 
BRANCH   2   3
ATOM      3  C   UNL     1      12.156  33.722  26.340  1.00  0.00     0.000 C 
BRANCH   3   4
ATOM      4  C   UNL     1      12.125  35.126  26.949  1.00  0.00     0.000 C 
BRANCH   4   5
ATOM      5  C   UNL     1      11.160  35.199  28.133  1.00  0.00     0.000 C 
BRANCH   5   6
ATOM      6  C   UNL     1      11.836  35.573  29.458  1.00  0.00     0.006 C 
BRANCH   6   7
ATOM      7  C   UNL     1      12.153  34.385  30.366  1.00  0.00     0.053 C 
BRANCH   7   8
ATOM      8  C   UNL     1      13.609  33.989  30.388  1.00  0.00     0.041 C 
ATOM      9  O   UNL     1      14.448  34.510  31.111  1.00  0.00    -0.550 OA
ATOM     10  O   UNL     1      13.902  33.012  29.495  1.00  0.00    -0.550 OA
ENDBRANCH   7   8
ENDBRANCH   6   7
ENDBRANCH   5   6
ENDBRANCH   4   5
ENDBRANCH   3   4
ENDBRANCH   2   3
ENDBRANCH   1   2
BRANCH   1  11
ATOM     11  C   UNL     1      11.931  32.194  23.950  1.00  0.00     0.000 C 
BRANCH  11  12
ATOM     12  C   UNL     1      11.729  31.905  22.460  1.00  0.00    -0.000 C 
BRANCH  12  13
ATOM     13  C   UNL     1      10.243  31.865  22.101  1.00  0.00    -0.000 C 
BRANCH  13  14
ATOM     14  C   UNL     1       9.979  31.841  20.592  1.00  0.00    -0.000 C 
BRANCH  14  15
ATOM     15  C   UNL     1      11.173  31.465  19.707  1.00  0.00    -0.000 C 
BRANCH  15  16
ATOM     16  C   UNL     1      10.888  31.597  18.208  1.00  0.00    -0.000 C 
BRANCH  16  17
ATOM     17  C   UNL     1      10.694  33.047  17.754  1.00  0.00    -0.003 C 
ATOM     18  C   UNL     1       9.335  33.312  17.125  1.00  0.00     0.004 C 
ENDBRANCH  16  17
ENDBRANCH  15  16
ENDBRANCH  14  15
ENDBRANCH  13  14
ENDBRANCH  12  13
ENDBRANCH  11  12
ENDBRANCH   1  11
TORSDOF 14
ENDMDL
MODEL 16
REMARK VINA RESULT:    -5.274      4.747      6.538
REMARK INTER + INTRA:         -11.577
REMARK INTER:                 -10.910
REMARK INTRA:                  -0.666
REMARK UNBOUND:                -1.986
REMARK SMILES CCCCCCCCCCCCCCCC(=O)[O-]
REMARK SMILES IDX 9 1 10 2 11 3 12 4 13 5 14 6 15 7 16 8 17 9 18 10 8 11 7 12
REMARK SMILES IDX 6 13 5 14 4 15 3 16 2 17 1 18
REMARK H PARENT
REMARK INDEX MAP 4 1 6 2 8 3 10 4 12 5 14 6 16 7 18 8 2 9 1 10 3 11 5 12 7 13
REMARK INDEX MAP 9 14 11 15 13 16 15 17 17 18
ROOT
ATOM      1  C   UNL     1      12.072  32.195  23.321  1.00  0.00     0.000 C 
ENDROOT
BRANCH   1   2
ATOM      2  C   UNL     1      12.119  32.605  24.796  1.00  0.00     0.000 C 
BRANCH   2   3
ATOM      3  C   UNL     1      10.776  32.988  25.428  1.00  0.00     0.000 C 
BRANCH   3   4
ATOM      4  C   UNL     1      10.885  34.113  26.461  1.00  0.00     0.000 C 
BRANCH   4   5
ATOM      5  C   UNL     1      12.341  34.376  26.848  1.00  0.00     0.000 C 
BRANCH   5   6
ATOM      6  C   UNL     1      12.714  33.851  28.240  1.00  0.00     0.006 C 
BRANCH   6   7
ATOM      7  C   UNL     1      12.925  34.939  29.292  1.00  0.00     0.053 C 
BRANCH   7   8
ATOM      8  C   UNL     1      13.414  34.431  30.626  1.00  0.00     0.041 C 
ATOM      9  O   UNL     1      14.596  34.327  30.925  1.00  0.00    -0.550 OA
ATOM     10  O   UNL     1      12.404  34.065  31.452  1.00  0.00    -0.550 OA
ENDBRANCH   7   8
ENDBRANCH   6   7
ENDBRANCH   5   6
ENDBRANCH   4   5
ENDBRANCH   3   4
ENDBRANCH   2   3
ENDBRANCH   1   2
BRANCH   1  11
ATOM     11  C   UNL     1      10.669  32.255  22.712  1.00  0.00     0.000 C 
BRANCH  11  12
ATOM     12  C   UNL     1      10.478  31.155  21.664  1.00  0.00    -0.000 C 
BRANCH  12  13
ATOM     13  C   UNL     1      10.066  31.743  20.313  1.00  0.00    -0.000 C 
BRANCH  13  14
ATOM     14  C   UNL     1       8.549  31.813  20.114  1.00  0.00    -0.000 C 
BRANCH  14  15
ATOM     15  C   UNL     1       8.044  31.530  18.694  1.00  0.00    -0.000 C 
BRANCH  15  16
ATOM     16  C   UNL     1       9.047  30.758  17.831  1.00  0.00    -0.000 C 
BRANCH  16  17
ATOM     17  C   UNL     1       8.396  29.665  16.978  1.00  0.00    -0.003 C 
ATOM     18  C   UNL     1       6.883  29.609  17.111  1.00  0.00     0.004 C 
ENDBRANCH  16  17
ENDBRANCH  15  16
ENDBRANCH  14  15
ENDBRANCH  13  14
ENDBRANCH  12  13
ENDBRANCH  11  12
ENDBRANCH   1  11
TORSDOF 14
ENDMDL
MODEL 17
REMARK VINA RESULT:    -5.274      4.759      6.551
REMARK INTER + INTRA:         -11.577
REMARK INTER:                 -10.899
REMARK INTRA:                  -0.678
REMARK UNBOUND:                -1.986
REMARK SMILES CCCCCCCCCCCCCCCC(=O)[O-]
REMARK SMILES IDX 9 1 10 2 11 3 12 4 13 5 14 6 15 7 16 8 17 9 18 10 8 11 7 12
REMARK SMILES IDX 6 13 5 14 4 15 3 16 2 17 1 18
REMARK H PARENT
REMARK INDEX MAP 4 1 6 2 8 3 10 4 12 5 14 6 16 7 18 8 2 9 1 10 3 11 5 12 7 13
REMARK INDEX MAP 9 14 11 15 13 16 15 17 17 18
ROOT
ATOM      1  C   UNL     1      12.040  32.213  23.823  1.00  0.00     0.000 C 
ENDROOT
BRANCH   1   2
ATOM      2  C   UNL     1      10.707  32.386  24.556  1.00  0.00     0.000 C 
BRANCH   2   3
ATOM      3  C   UNL     1      10.718  33.350  25.748  1.00  0.00     0.000 C 
BRANCH   3   4
ATOM      4  C   UNL     1      10.380  32.678  27.081  1.00  0.00     0.000 C 
BRANCH   4   5
ATOM      5  C   UNL     1      10.961  33.458  28.261  1.00  0.00     0.000 C 
BRANCH   5   6
ATOM      6  C   UNL     1      12.491  33.394  28.351  1.00  0.00     0.006 C 
BRANCH   6   7
ATOM      7  C   UNL     1      13.130  34.545  29.127  1.00  0.00     0.053 C 
BRANCH   7   8
ATOM      8  C   UNL     1      13.322  34.273  30.599  1.00  0.00     0.041 C 
ATOM      9  O   UNL     1      12.401  34.118  31.390  1.00  0.00    -0.550 OA
ATOM     10  O   UNL     1      14.627  34.250  30.965  1.00  0.00    -0.550 OA
ENDBRANCH   7   8
ENDBRANCH   6   7
ENDBRANCH   5   6
ENDBRANCH   4   5
ENDBRANCH   3   4
ENDBRANCH   2   3
ENDBRANCH   1   2
BRANCH   1  11
ATOM     11  C   UNL     1      11.886  31.803  22.356  1.00  0.00     0.000 C 
BRANCH  11  12
ATOM     12  C   UNL     1      10.450  31.367  22.055  1.00  0.00    -0.000 C 
BRANCH  12  13
ATOM     13  C   UNL     1      10.038  31.761  20.636  1.00  0.00    -0.000 C 
BRANCH  13  14
ATOM     14  C   UNL     1       8.522  31.887  20.452  1.00  0.00    -0.000 C 
BRANCH  14  15
ATOM     15  C   UNL     1       7.963  31.389  19.114  1.00  0.00    -0.000 C 
BRANCH  15  16
ATOM     16  C   UNL     1       9.036  30.837  18.171  1.00  0.00    -0.000 C 
BRANCH  16  17
ATOM     17  C   UNL     1       8.550  29.655  17.327  1.00  0.00    -0.003 C 
ATOM     18  C   UNL     1       7.113  29.796  16.853  1.00  0.00     0.004 C 
ENDBRANCH  16  17
ENDBRANCH  15  16
ENDBRANCH  14  15
ENDBRANCH  13  14
ENDBRANCH  12  13
ENDBRANCH  11  12
ENDBRANCH   1  11
TORSDOF 14
ENDMDL
MODEL 18
REMARK VINA RESULT:    -5.271      3.103      7.265
REMARK INTER + INTRA:         -11.571
REMARK INTER:                 -10.562
REMARK INTRA:                  -1.009
REMARK UNBOUND:                -1.986
REMARK SMILES CCCCCCCCCCCCCCCC(=O)[O-]
REMARK SMILES IDX 9 1 10 2 11 3 12 4 13 5 14 6 15 7 16 8 17 9 18 10 8 11 7 12
REMARK SMILES IDX 6 13 5 14 4 15 3 16 2 17 1 18
REMARK H PARENT
REMARK INDEX MAP 4 1 6 2 8 3 10 4 12 5 14 6 16 7 18 8 2 9 1 10 3 11 5 12 7 13
REMARK INDEX MAP 9 14 11 15 13 16 15 17 17 18
ROOT
ATOM      1  C   UNL     1       9.253  31.819  20.279  1.00  0.00     0.000 C 
ENDROOT
BRANCH   1   2
ATOM      2  C   UNL     1       8.697  32.225  18.910  1.00  0.00     0.000 C 
BRANCH   2   3
ATOM      3  C   UNL     1       9.460  31.691  17.693  1.00  0.00     0.000 C 
BRANCH   3   4
ATOM      4  C   UNL     1       8.548  31.232  16.552  1.00  0.00     0.000 C 
BRANCH   4   5
ATOM      5  C   UNL     1       7.896  29.885  16.868  1.00  0.00     0.000 C 
BRANCH   5   6
ATOM      6  C   UNL     1       6.372  29.960  17.029  1.00  0.00     0.006 C 
BRANCH   6   7
ATOM      7  C   UNL     1       5.881  29.837  18.471  1.00  0.00     0.053 C 
BRANCH   7   8
ATOM      8  C   UNL     1       5.299  31.107  19.042  1.00  0.00     0.041 C 
ATOM      9  O   UNL     1       5.001  32.084  18.368  1.00  0.00    -0.550 OA
ATOM     10  O   UNL     1       5.170  31.067  20.390  1.00  0.00    -0.550 OA
ENDBRANCH   7   8
ENDBRANCH   6   7
ENDBRANCH   5   6
ENDBRANCH   4   5
ENDBRANCH   3   4
ENDBRANCH   2   3
ENDBRANCH   1   2
BRANCH   1  11
ATOM     11  C   UNL     1      10.743  31.473  20.258  1.00  0.00     0.000 C 
BRANCH  11  12
ATOM     12  C   UNL     1      11.316  31.423  21.676  1.00  0.00    -0.000 C 
BRANCH  12  13
ATOM     13  C   UNL     1      10.446  32.216  22.653  1.00  0.00    -0.000 C 
BRANCH  13  14
ATOM     14  C   UNL     1      11.056  32.343  24.052  1.00  0.00    -0.000 C 
BRANCH  14  15
ATOM     15  C   UNL     1      10.117  32.854  25.151  1.00  0.00    -0.000 C 
BRANCH  15  16
ATOM     16  C   UNL     1      10.794  33.811  26.137  1.00  0.00    -0.000 C 
BRANCH  16  17
ATOM     17  C   UNL     1      12.220  33.393  26.505  1.00  0.00    -0.003 C 
ATOM     18  C   UNL     1      12.394  33.049  27.975  1.00  0.00     0.004 C 
ENDBRANCH  16  17
ENDBRANCH  15  16
ENDBRANCH  14  15
ENDBRANCH  13  14
ENDBRANCH  12  13
ENDBRANCH  11  12
ENDBRANCH   1  11
TORSDOF 14
ENDMDL
MODEL 19
REMARK VINA RESULT:    -5.269      3.107      7.253
REMARK INTER + INTRA:         -11.568
REMARK INTER:                 -10.663
REMARK INTRA:                  -0.905
REMARK UNBOUND:                -1.986
REMARK SMILES CCCCCCCCCCCCCCCC(=O)[O-]
REMARK SMILES IDX 9 1 10 2 11 3 12 4 13 5 14 6 15 7 16 8 17 9 18 10 8 11 7 12
REMARK SMILES IDX 6 13 5 14 4 15 3 16 2 17 1 18
REMARK H PARENT
REMARK INDEX MAP 4 1 6 2 8 3 10 4 12 5 14 6 16 7 18 8 2 9 1 10 3 11 5 12 7 13
REMARK INDEX MAP 9 14 11 15 13 16 15 17 17 18
ROOT
ATOM      1  C   UNL     1       8.989  31.353  19.332  1.00  0.00     0.000 C 
ENDROOT
BRANCH   1   2
ATOM      2  C   UNL     1       9.285  30.921  17.893  1.00  0.00     0.000 C 
BRANCH   2   3
ATOM      3  C   UNL     1       8.498  29.709  17.382  1.00  0.00     0.000 C 
BRANCH   3   4
ATOM      4  C   UNL     1       7.077  29.619  17.946  1.00  0.00     0.000 C 
BRANCH   4   5
ATOM      5  C   UNL     1       6.049  30.169  16.956  1.00  0.00     0.000 C 
BRANCH   5   6
ATOM      6  C   UNL     1       4.880  30.903  17.624  1.00  0.00     0.006 C 
BRANCH   6   7
ATOM      7  C   UNL     1       5.246  32.256  18.234  1.00  0.00     0.053 C 
BRANCH   7   8
ATOM      8  C   UNL     1       5.848  33.236  17.258  1.00  0.00     0.041 C 
ATOM      9  O   UNL     1       7.052  33.424  17.133  1.00  0.00    -0.550 OA
ATOM     10  O   UNL     1       4.914  33.918  16.551  1.00  0.00    -0.550 OA
ENDBRANCH   7   8
ENDBRANCH   6   7
ENDBRANCH   5   6
ENDBRANCH   4   5
ENDBRANCH   3   4
ENDBRANCH   2   3
ENDBRANCH   1   2
BRANCH   1  11
ATOM     11  C   UNL     1      10.229  31.810  20.104  1.00  0.00     0.000 C 
BRANCH  11  12
ATOM     12  C   UNL     1      10.117  31.450  21.587  1.00  0.00    -0.000 C 
BRANCH  12  13
ATOM     13  C   UNL     1      11.403  31.796  22.340  1.00  0.00    -0.000 C 
BRANCH  13  14
ATOM     14  C   UNL     1      11.171  32.165  23.809  1.00  0.00    -0.000 C 
BRANCH  14  15
ATOM     15  C   UNL     1      12.423  32.527  24.616  1.00  0.00    -0.000 C 
BRANCH  15  16
ATOM     16  C   UNL     1      12.112  33.120  25.994  1.00  0.00    -0.000 C 
BRANCH  16  17
ATOM     17  C   UNL     1      10.682  33.655  26.113  1.00  0.00    -0.003 C 
ATOM     18  C   UNL     1      10.611  35.115  26.532  1.00  0.00     0.004 C 
ENDBRANCH  16  17
ENDBRANCH  15  16
ENDBRANCH  14  15
ENDBRANCH  13  14
ENDBRANCH  12  13
ENDBRANCH  11  12
ENDBRANCH   1  11
TORSDOF 14
ENDMDL
MODEL 20
REMARK VINA RESULT:    -5.230      3.821      8.149
REMARK INTER + INTRA:         -11.496
REMARK INTER:                 -10.622
REMARK INTRA:                  -0.874
REMARK UNBOUND:                -1.986
REMARK SMILES CCCCCCCCCCCCCCCC(=O)[O-]
REMARK SMILES IDX 9 1 10 2 11 3 12 4 13 5 14 6 15 7 16 8 17 9 18 10 8 11 7 12
REMARK SMILES IDX 6 13 5 14 4 15 3 16 2 17 1 18
REMARK H PARENT
REMARK INDEX MAP 4 1 6 2 8 3 10 4 12 5 14 6 16 7 18 8 2 9 1 10 3 11 5 12 7 13
REMARK INDEX MAP 9 14 11 15 13 16 15 17 17 18
ROOT
ATOM      1  C   UNL     1      10.466  32.196  22.497  1.00  0.00     0.000 C 
ENDROOT
BRANCH   1   2
ATOM      2  C   UNL     1      10.163  31.207  21.367  1.00  0.00     0.000 C 
BRANCH   2   3
ATOM      3  C   UNL     1       9.572  31.811  20.088  1.00  0.00     0.000 C 
BRANCH   3   4
ATOM      4  C   UNL     1      10.548  31.825  18.909  1.00  0.00     0.000 C 
BRANCH   4   5
ATOM      5  C   UNL     1       9.834  31.529  17.590  1.00  0.00     0.000 C 
BRANCH   5   6
ATOM      6  C   UNL     1       8.929  30.292  17.642  1.00  0.00     0.006 C 
BRANCH   6   7
ATOM      7  C   UNL     1       7.490  30.539  17.188  1.00  0.00     0.053 C 
BRANCH   7   8
ATOM      8  C   UNL     1       6.442  29.899  18.065  1.00  0.00     0.041 C 
ATOM      9  O   UNL     1       5.237  30.049  17.908  1.00  0.00    -0.550 OA
ATOM     10  O   UNL     1       6.974  29.164  19.071  1.00  0.00    -0.550 OA
ENDBRANCH   7   8
ENDBRANCH   6   7
ENDBRANCH   5   6
ENDBRANCH   4   5
ENDBRANCH   3   4
ENDBRANCH   2   3
ENDBRANCH   1   2
BRANCH   1  11
ATOM     11  C   UNL     1      11.932  32.195  22.937  1.00  0.00     0.000 C 
BRANCH  11  12
ATOM     12  C   UNL     1      12.048  32.305  24.459  1.00  0.00    -0.000 C 
BRANCH  12  13
ATOM     13  C   UNL     1      10.698  32.642  25.095  1.00  0.00    -0.000 C 
BRANCH  13  14
ATOM     14  C   UNL     1      10.818  33.417  26.411  1.00  0.00    -0.000 C 
BRANCH  14  15
ATOM     15  C   UNL     1      11.847  34.554  26.429  1.00  0.00    -0.000 C 
BRANCH  15  16
ATOM     16  C   UNL     1      12.564  34.707  27.774  1.00  0.00    -0.000 C 
BRANCH  16  17
ATOM     17  C   UNL     1      12.802  33.373  28.489  1.00  0.00    -0.003 C 
ATOM     18  C   UNL     1      13.696  33.490  29.714  1.00  0.00     0.004 C 
ENDBRANCH  16  17
ENDBRANCH  15  16
ENDBRANCH  14  15
ENDBRANCH  13  14
ENDBRANCH  12  13
ENDBRANCH  11  12
ENDBRANCH   1  11
TORSDOF 14
ENDMDL
