MODEL 1
REMARK VINA RESULT:    -6.145      0.000      0.000
REMARK INTER + INTRA:         -12.730
REMARK INTER:                 -11.174
REMARK INTRA:                  -1.556
REMARK UNBOUND:                -1.556
REMARK SMILES CCCCCCCCCCCCCCCC(=O)[O-]
REMARK SMILES IDX 9 1 10 2 11 3 12 4 13 5 14 6 15 7 16 8 17 9 18 10 8 11 7 12
REMARK SMILES IDX 6 13 5 14 4 15 3 16 2 17 1 18
REMARK H PARENT
REMARK INDEX MAP 4 1 6 2 8 3 10 4 12 5 14 6 16 7 18 8 2 9 1 10 3 11 5 12 7 13
REMARK INDEX MAP 9 14 11 15 13 16 15 17 17 18
ROOT
ATOM      1  C   UNL     1       9.121  31.981  17.131  1.00  0.00     0.000 C 
ENDROOT
BRANCH   1   2
ATOM      2  C   UNL     1      10.515  31.792  17.738  1.00  0.00     0.000 C 
BRANCH   2   3
ATOM      3  C   UNL     1      10.576  31.730  19.269  1.00  0.00     0.000 C 
BRANCH   3   4
ATOM      4  C   UNL     1       9.233  32.014  19.947  1.00  0.00     0.000 C 
BRANCH   4   5
ATOM      5  C   UNL     1       9.318  31.809  21.460  1.00  0.00     0.000 C 
BRANCH   5   6
ATOM      6  C   UNL     1      10.754  31.775  21.998  1.00  0.00     0.006 C 
BRANCH   6   7
ATOM      7  C   UNL     1      10.873  32.022  23.502  1.00  0.00     0.053 C 
BRANCH   7   8
ATOM      8  C   UNL     1      12.281  32.273  23.983  1.00  0.00     0.041 C 
ATOM      9  O   UNL     1      12.554  32.840  25.033  1.00  0.00    -0.550 OA
ATOM     10  O   UNL     1      13.221  31.834  23.110  1.00  0.00    -0.550 OA
ENDBRANCH   7   8
ENDBRANCH   6   7
ENDBRANCH   5   6
ENDBRANCH   4   5
ENDBRANCH   3   4
ENDBRANCH   2   3
ENDBRANCH   1   2
BRANCH   1  11
ATOM     11  C   UNL     1       8.689  30.832  16.217  1.00  0.00     0.000 C 
BRANCH  11  12
ATOM     12  C   UNL     1       8.007  29.720  17.017  1.00  0.00    -0.000 C 
BRANCH  12  13
ATOM     13  C   UNL     1       6.561  29.517  16.560  1.00  0.00    -0.000 C 
BRANCH  13  14
ATOM     14  C   UNL     1       5.525  29.924  17.613  1.00  0.00    -0.000 C 
BRANCH  14  15
ATOM     15  C   UNL     1       5.093  31.395  17.597  1.00  0.00    -0.000 C 
BRANCH  15  16
ATOM     16  C   UNL     1       5.548  32.180  18.831  1.00  0.00    -0.000 C 
BRANCH  16  17
ATOM     17  C   UNL     1       5.343  31.416  20.143  1.00  0.00    -0.003 C 
ATOM     18  C   UNL     1       5.546  32.272  21.384  1.00  0.00     0.004 C 
ENDBRANCH  16  17
ENDBRANCH  15  16
ENDBRANCH  14  15
ENDBRANCH  13  14
ENDBRANCH  12  13
ENDBRANCH  11  12
ENDBRANCH   1  11
TORSDOF 14
ENDMDL
MODEL 2
REMARK VINA RESULT:    -6.117      3.050      6.506
REMARK INTER + INTRA:         -12.680
REMARK INTER:                 -10.845
REMARK INTRA:                  -1.836
REMARK UNBOUND:                -1.556
REMARK SMILES CCCCCCCCCCCCCCCC(=O)[O-]
REMARK SMILES IDX 9 1 10 2 11 3 12 4 13 5 14 6 15 7 16 8 17 9 18 10 8 11 7 12
REMARK SMILES IDX 6 13 5 14 4 15 3 16 2 17 1 18
REMARK H PARENT
REMARK INDEX MAP 4 1 6 2 8 3 10 4 12 5 14 6 16 7 18 8 2 9 1 10 3 11 5 12 7 13
REMARK INDEX MAP 9 14 11 15 13 16 15 17 17 18
ROOT
ATOM      1  C   UNL     1       7.944  33.506  22.060  1.00  0.00     0.000 C 
ENDROOT
BRANCH   1   2
ATOM      2  C   UNL     1       6.555  33.311  22.677  1.00  0.00     0.000 C 
BRANCH   2   3
ATOM      3  C   UNL     1       5.563  32.490  21.846  1.00  0.00     0.000 C 
BRANCH   3   4
ATOM      4  C   UNL     1       6.167  31.917  20.561  1.00  0.00     0.000 C 
BRANCH   4   5
ATOM      5  C   UNL     1       5.096  31.271  19.681  1.00  0.00     0.000 C 
BRANCH   5   6
ATOM      6  C   UNL     1       5.382  31.382  18.178  1.00  0.00     0.006 C 
BRANCH   6   7
ATOM      7  C   UNL     1       5.563  30.041  17.467  1.00  0.00     0.053 C 
BRANCH   7   8
ATOM      8  C   UNL     1       6.980  29.524  17.463  1.00  0.00     0.041 C 
ATOM      9  O   UNL     1       7.698  29.505  16.472  1.00  0.00    -0.550 OA
ATOM     10  O   UNL     1       7.370  29.047  18.671  1.00  0.00    -0.550 OA
ENDBRANCH   7   8
ENDBRANCH   6   7
ENDBRANCH   5   6
ENDBRANCH   4   5
ENDBRANCH   3   4
ENDBRANCH   2   3
ENDBRANCH   1   2
BRANCH   1  11
ATOM     11  C   UNL     1       9.090  33.319  23.058  1.00  0.00     0.000 C 
BRANCH  11  12
ATOM     12  C   UNL     1      10.131  32.334  22.521  1.00  0.00    -0.000 C 
BRANCH  12  13
ATOM     13  C   UNL     1       9.608  31.592  21.290  1.00  0.00    -0.000 C 
BRANCH  13  14
ATOM     14  C   UNL     1      10.494  31.760  20.052  1.00  0.00    -0.000 C 
BRANCH  14  15
ATOM     15  C   UNL     1       9.786  31.640  18.697  1.00  0.00    -0.000 C 
BRANCH  15  16
ATOM     16  C   UNL     1       8.849  32.813  18.391  1.00  0.00    -0.000 C 
BRANCH  16  17
ATOM     17  C   UNL     1       8.443  32.894  16.917  1.00  0.00    -0.003 C 
ATOM     18  C   UNL     1       9.622  32.858  15.957  1.00  0.00     0.004 C 
ENDBRANCH  16  17
ENDBRANCH  15  16
ENDBRANCH  14  15
ENDBRANCH  13  14
ENDBRANCH  12  13
ENDBRANCH  11  12
ENDBRANCH   1  11
TORSDOF 14
ENDMDL
MODEL 3
REMARK VINA RESULT:    -6.097      1.016      2.066
REMARK INTER + INTRA:         -12.644
REMARK INTER:                 -11.448
REMARK INTRA:                  -1.196
REMARK UNBOUND:                -1.556
REMARK SMILES CCCCCCCCCCCCCCCC(=O)[O-]
REMARK SMILES IDX 9 1 10 2 11 3 12 4 13 5 14 6 15 7 16 8 17 9 18 10 8 11 7 12
REMARK SMILES IDX 6 13 5 14 4 15 3 16 2 17 1 18
REMARK H PARENT
REMARK INDEX MAP 4 1 6 2 8 3 10 4 12 5 14 6 16 7 18 8 2 9 1 10 3 11 5 12 7 13
REMARK INDEX MAP 9 14 11 15 13 16 15 17 17 18
ROOT
ATOM      1  C   UNL     1       8.516  30.069  17.688  1.00  0.00     0.000 C 
ENDROOT
BRANCH   1   2
ATOM      2  C   UNL     1       9.126  31.465  17.846  1.00  0.00     0.000 C 
BRANCH   2   3
ATOM      3  C   UNL     1      10.656  31.523  17.919  1.00  0.00     0.000 C 
BRANCH   3   4
ATOM      4  C   UNL     1      11.192  31.788  19.329  1.00  0.00     0.000 C 
BRANCH   4   5
ATOM      5  C   UNL     1      10.069  31.758  20.367  1.00  0.00     0.000 C 
BRANCH   5   6
ATOM      6  C   UNL     1      10.501  31.200  21.728  1.00  0.00     0.006 C 
BRANCH   6   7
ATOM      7  C   UNL     1      10.820  32.264  22.778  1.00  0.00     0.053 C 
BRANCH   7   8
ATOM      8  C   UNL     1      12.170  32.109  23.432  1.00  0.00     0.041 C 
ATOM      9  O   UNL     1      13.162  31.678  22.858  1.00  0.00    -0.550 OA
ATOM     10  O   UNL     1      12.166  32.467  24.739  1.00  0.00    -0.550 OA
ENDBRANCH   7   8
ENDBRANCH   6   7
ENDBRANCH   5   6
ENDBRANCH   4   5
ENDBRANCH   3   4
ENDBRANCH   2   3
ENDBRANCH   1   2
BRANCH   1  11
ATOM     11  C   UNL     1       7.462  29.982  16.582  1.00  0.00     0.000 C 
BRANCH  11  12
ATOM     12  C   UNL     1       6.047  30.026  17.166  1.00  0.00    -0.000 C 
BRANCH  12  13
ATOM     13  C   UNL     1       6.081  30.188  18.687  1.00  0.00    -0.000 C 
BRANCH  13  14
ATOM     14  C   UNL     1       5.568  31.548  19.168  1.00  0.00    -0.000 C 
BRANCH  14  15
ATOM     15  C   UNL     1       6.278  32.139  20.393  1.00  0.00    -0.000 C 
BRANCH  15  16
ATOM     16  C   UNL     1       5.373  32.266  21.622  1.00  0.00    -0.000 C 
BRANCH  16  17
ATOM     17  C   UNL     1       5.976  33.131  22.732  1.00  0.00    -0.003 C 
ATOM     18  C   UNL     1       7.401  33.578  22.449  1.00  0.00     0.004 C 
ENDBRANCH  16  17
ENDBRANCH  15  16
ENDBRANCH  14  15
ENDBRANCH  13  14
ENDBRANCH  12  13
ENDBRANCH  11  12
ENDBRANCH   1  11
TORSDOF 14
ENDMDL
MODEL 4
REMARK VINA RESULT:    -6.053      1.364      3.790
REMARK INTER + INTRA:         -12.563
REMARK INTER:                 -11.046
REMARK INTRA:                  -1.517
REMARK UNBOUND:                -1.556
REMARK SMILES CCCCCCCCCCCCCCCC(=O)[O-]
REMARK SMILES IDX 9 1 10 2 11 3 12 4 13 5 14 6 15 7 16 8 17 9 18 10 8 11 7 12
REMARK SMILES IDX 6 13 5 14 4 15 3 16 2 17 1 18
REMARK H PARENT
REMARK INDEX MAP 4 1 6 2 8 3 10 4 12 5 14 6 16 7 18 8 2 9 1 10 3 11 5 12 7 13
REMARK INDEX MAP 9 14 11 15 13 16 15 17 17 18
ROOT
ATOM      1  C   UNL     1       6.126  31.903  20.065  1.00  0.00     0.000 C 
ENDROOT
BRANCH   1   2
ATOM      2  C   UNL     1       5.588  32.250  21.456  1.00  0.00     0.000 C 
BRANCH   2   3
ATOM      3  C   UNL     1       6.515  33.087  22.344  1.00  0.00     0.000 C 
BRANCH   3   4
ATOM      4  C   UNL     1       7.987  33.020  21.926  1.00  0.00     0.000 C 
BRANCH   4   5
ATOM      5  C   UNL     1       8.913  33.384  23.088  1.00  0.00     0.000 C 
BRANCH   5   6
ATOM      6  C   UNL     1      10.244  32.622  23.078  1.00  0.00     0.006 C 
BRANCH   6   7
ATOM      7  C   UNL     1      10.332  31.513  22.029  1.00  0.00     0.053 C 
BRANCH   7   8
ATOM      8  C   UNL     1      11.681  31.391  21.364  1.00  0.00     0.041 C 
ATOM      9  O   UNL     1      11.836  31.165  20.171  1.00  0.00    -0.550 OA
ATOM     10  O   UNL     1      12.711  31.523  22.235  1.00  0.00    -0.550 OA
ENDBRANCH   7   8
ENDBRANCH   6   7
ENDBRANCH   5   6
ENDBRANCH   4   5
ENDBRANCH   3   4
ENDBRANCH   2   3
ENDBRANCH   1   2
BRANCH   1  11
ATOM     11  C   UNL     1       5.031  31.720  19.011  1.00  0.00     0.000 C 
BRANCH  11  12
ATOM     12  C   UNL     1       5.635  31.563  17.613  1.00  0.00    -0.000 C 
BRANCH  12  13
ATOM     13  C   UNL     1       5.650  30.097  17.177  1.00  0.00    -0.000 C 
BRANCH  13  14
ATOM     14  C   UNL     1       7.056  29.492  17.115  1.00  0.00    -0.000 C 
BRANCH  14  15
ATOM     15  C   UNL     1       8.180  30.445  16.693  1.00  0.00    -0.000 C 
BRANCH  15  16
ATOM     16  C   UNL     1       9.141  30.799  17.831  1.00  0.00    -0.000 C 
BRANCH  16  17
ATOM     17  C   UNL     1       9.222  32.303  18.110  1.00  0.00    -0.003 C 
ATOM     18  C   UNL     1      10.462  32.964  17.530  1.00  0.00     0.004 C 
ENDBRANCH  16  17
ENDBRANCH  15  16
ENDBRANCH  14  15
ENDBRANCH  13  14
ENDBRANCH  12  13
ENDBRANCH  11  12
ENDBRANCH   1  11
TORSDOF 14
ENDMDL
MODEL 5
REMARK VINA RESULT:    -5.985      1.817      3.180
REMARK INTER + INTRA:         -12.440
REMARK INTER:                 -10.700
REMARK INTRA:                  -1.739
REMARK UNBOUND:                -1.556
REMARK SMILES CCCCCCCCCCCCCCCC(=O)[O-]
REMARK SMILES IDX 9 1 10 2 11 3 12 4 13 5 14 6 15 7 16 8 17 9 18 10 8 11 7 12
REMARK SMILES IDX 6 13 5 14 4 15 3 16 2 17 1 18
REMARK H PARENT
REMARK INDEX MAP 4 1 6 2 8 3 10 4 12 5 14 6 16 7 18 8 2 9 1 10 3 11 5 12 7 13
REMARK INDEX MAP 9 14 11 15 13 16 15 17 17 18
ROOT
ATOM      1  C   UNL     1       8.112  30.417  16.036  1.00  0.00     0.000 C 
ENDROOT
BRANCH   1   2
ATOM      2  C   UNL     1       9.035  31.622  15.827  1.00  0.00     0.000 C 
BRANCH   2   3
ATOM      3  C   UNL     1       8.548  32.949  16.422  1.00  0.00     0.000 C 
BRANCH   3   4
ATOM      4  C   UNL     1       9.193  33.290  17.768  1.00  0.00     0.000 C 
BRANCH   4   5
ATOM      5  C   UNL     1      10.685  32.955  17.771  1.00  0.00     0.000 C 
BRANCH   5   6
ATOM      6  C   UNL     1      11.057  31.801  18.711  1.00  0.00     0.006 C 
BRANCH   6   7
ATOM      7  C   UNL     1      10.183  31.695  19.961  1.00  0.00     0.053 C 
BRANCH   7   8
ATOM      8  C   UNL     1      10.952  31.489  21.242  1.00  0.00     0.041 C 
ATOM      9  O   UNL     1      11.934  30.765  21.341  1.00  0.00    -0.550 OA
ATOM     10  O   UNL     1      10.421  32.167  22.289  1.00  0.00    -0.550 OA
ENDBRANCH   7   8
ENDBRANCH   6   7
ENDBRANCH   5   6
ENDBRANCH   4   5
ENDBRANCH   3   4
ENDBRANCH   2   3
ENDBRANCH   1   2
BRANCH   1  11
ATOM     11  C   UNL     1       8.232  29.785  17.424  1.00  0.00     0.000 C 
BRANCH  11  12
ATOM     12  C   UNL     1       6.956  30.006  18.241  1.00  0.00    -0.000 C 
BRANCH  12  13
ATOM     13  C   UNL     1       5.707  29.829  17.375  1.00  0.00    -0.000 C 
BRANCH  13  14
ATOM     14  C   UNL     1       4.612  30.860  17.665  1.00  0.00    -0.000 C 
BRANCH  14  15
ATOM     15  C   UNL     1       5.084  32.193  18.258  1.00  0.00    -0.000 C 
BRANCH  15  16
ATOM     16  C   UNL     1       5.431  33.244  17.200  1.00  0.00    -0.000 C 
BRANCH  16  17
ATOM     17  C   UNL     1       4.209  33.759  16.434  1.00  0.00    -0.003 C 
ATOM     18  C   UNL     1       4.368  35.180  15.917  1.00  0.00     0.004 C 
ENDBRANCH  16  17
ENDBRANCH  15  16
ENDBRANCH  14  15
ENDBRANCH  13  14
ENDBRANCH  12  13
ENDBRANCH  11  12
ENDBRANCH   1  11
TORSDOF 14
ENDMDL
MODEL 6
REMARK VINA RESULT:    -5.960      3.056      5.736
REMARK INTER + INTRA:         -12.394
REMARK INTER:                 -10.615
REMARK INTRA:                  -1.779
REMARK UNBOUND:                -1.556
REMARK SMILES CCCCCCCCCCCCCCCC(=O)[O-]
REMARK SMILES IDX 9 1 10 2 11 3 12 4 13 5 14 6 15 7 16 8 17 9 18 10 8 11 7 12
REMARK SMILES IDX 6 13 5 14 4 15 3 16 2 17 1 18
REMARK H PARENT
REMARK INDEX MAP 4 1 6 2 8 3 10 4 12 5 14 6 16 7 18 8 2 9 1 10 3 11 5 12 7 13
REMARK INDEX MAP 9 14 11 15 13 16 15 17 17 18
ROOT
ATOM      1  C   UNL     1      10.055  32.524  22.232  1.00  0.00     0.000 C 
ENDROOT
BRANCH   1   2
ATOM      2  C   UNL     1       9.577  31.777  20.983  1.00  0.00     0.000 C 
BRANCH   2   3
ATOM      3  C   UNL     1      10.584  31.689  19.830  1.00  0.00     0.000 C 
BRANCH   3   4
ATOM      4  C   UNL     1      10.131  32.423  18.565  1.00  0.00     0.000 C 
BRANCH   4   5
ATOM      5  C   UNL     1       8.611  32.368  18.403  1.00  0.00     0.000 C 
BRANCH   5   6
ATOM      6  C   UNL     1       8.147  32.332  16.942  1.00  0.00     0.006 C 
BRANCH   6   7
ATOM      7  C   UNL     1       8.575  31.083  16.171  1.00  0.00     0.053 C 
BRANCH   7   8
ATOM      8  C   UNL     1       8.221  29.782  16.848  1.00  0.00     0.041 C 
ATOM      9  O   UNL     1       8.909  29.251  17.710  1.00  0.00    -0.550 OA
ATOM     10  O   UNL     1       7.071  29.239  16.378  1.00  0.00    -0.550 OA
ENDBRANCH   7   8
ENDBRANCH   6   7
ENDBRANCH   5   6
ENDBRANCH   4   5
ENDBRANCH   3   4
ENDBRANCH   2   3
ENDBRANCH   1   2
BRANCH   1  11
ATOM     11  C   UNL     1       8.938  33.271  22.965  1.00  0.00     0.000 C 
BRANCH  11  12
ATOM     12  C   UNL     1       7.740  33.512  22.042  1.00  0.00    -0.000 C 
BRANCH  12  13
ATOM     13  C   UNL     1       6.419  33.302  22.784  1.00  0.00    -0.000 C 
BRANCH  13  14
ATOM     14  C   UNL     1       5.380  32.520  21.973  1.00  0.00    -0.000 C 
BRANCH  14  15
ATOM     15  C   UNL     1       5.914  31.758  20.754  1.00  0.00    -0.000 C 
BRANCH  15  16
ATOM     16  C   UNL     1       5.186  32.103  19.451  1.00  0.00    -0.000 C 
BRANCH  16  17
ATOM     17  C   UNL     1       5.031  30.906  18.509  1.00  0.00    -0.003 C 
ATOM     18  C   UNL     1       4.334  31.246  17.202  1.00  0.00     0.004 C 
ENDBRANCH  16  17
ENDBRANCH  15  16
ENDBRANCH  14  15
ENDBRANCH  13  14
ENDBRANCH  12  13
ENDBRANCH  11  12
ENDBRANCH   1  11
TORSDOF 14
ENDMDL
MODEL 7
REMARK VINA RESULT:    -5.940      1.570      2.402
REMARK INTER + INTRA:         -12.357
REMARK INTER:                 -10.163
REMARK INTRA:                  -2.193
REMARK UNBOUND:                -1.556
REMARK SMILES CCCCCCCCCCCCCCCC(=O)[O-]
REMARK SMILES IDX 9 1 10 2 11 3 12 4 13 5 14 6 15 7 16 8 17 9 18 10 8 11 7 12
REMARK SMILES IDX 6 13 5 14 4 15 3 16 2 17 1 18
REMARK H PARENT
REMARK INDEX MAP 4 1 6 2 8 3 10 4 12 5 14 6 16 7 18 8 2 9 1 10 3 11 5 12 7 13
REMARK INDEX MAP 9 14 11 15 13 16 15 17 17 18
ROOT
ATOM      1  C   UNL     1       8.486  30.762  15.817  1.00  0.00     0.000 C 
ENDROOT
BRANCH   1   2
ATOM      2  C   UNL     1       8.955  32.220  15.831  1.00  0.00     0.000 C 
BRANCH   2   3
ATOM      3  C   UNL     1       8.369  33.101  16.941  1.00  0.00     0.000 C 
BRANCH   3   4
ATOM      4  C   UNL     1       9.415  33.603  17.940  1.00  0.00     0.000 C 
BRANCH   4   5
ATOM      5  C   UNL     1      10.768  32.926  17.717  1.00  0.00     0.000 C 
BRANCH   5   6
ATOM      6  C   UNL     1      11.180  31.981  18.853  1.00  0.00     0.006 C 
BRANCH   6   7
ATOM      7  C   UNL     1      10.118  31.791  19.936  1.00  0.00     0.053 C 
BRANCH   7   8
ATOM      8  C   UNL     1      10.672  31.608  21.327  1.00  0.00     0.041 C 
ATOM      9  O   UNL     1      10.225  32.168  22.319  1.00  0.00    -0.550 OA
ATOM     10  O   UNL     1      11.746  30.782  21.362  1.00  0.00    -0.550 OA
ENDBRANCH   7   8
ENDBRANCH   6   7
ENDBRANCH   5   6
ENDBRANCH   4   5
ENDBRANCH   3   4
ENDBRANCH   2   3
ENDBRANCH   1   2
BRANCH   1  11
ATOM     11  C   UNL     1       8.673  30.044  17.156  1.00  0.00     0.000 C 
BRANCH  11  12
ATOM     12  C   UNL     1       7.553  29.029  17.396  1.00  0.00    -0.000 C 
BRANCH  12  13
ATOM     13  C   UNL     1       6.291  29.403  16.617  1.00  0.00    -0.000 C 
BRANCH  13  14
ATOM     14  C   UNL     1       5.191  30.015  17.490  1.00  0.00    -0.000 C 
BRANCH  14  15
ATOM     15  C   UNL     1       4.858  31.487  17.218  1.00  0.00    -0.000 C 
BRANCH  15  16
ATOM     16  C   UNL     1       5.072  32.396  18.432  1.00  0.00    -0.000 C 
BRANCH  16  17
ATOM     17  C   UNL     1       6.042  31.812  19.464  1.00  0.00    -0.003 C 
ATOM     18  C   UNL     1       5.514  31.856  20.889  1.00  0.00     0.004 C 
ENDBRANCH  16  17
ENDBRANCH  15  16
ENDBRANCH  14  15
ENDBRANCH  13  14
ENDBRANCH  12  13
ENDBRANCH  11  12
ENDBRANCH   1  11
TORSDOF 14
ENDMDL
MODEL 8
REMARK VINA RESULT:    -5.917      3.222      5.722
REMARK INTER + INTRA:         -12.315
REMARK INTER:                 -10.486
REMARK INTRA:                  -1.829
REMARK UNBOUND:                -1.556
REMARK SMILES CCCCCCCCCCCCCCCC(=O)[O-]
REMARK SMILES IDX 9 1 10 2 11 3 12 4 13 5 14 6 15 7 16 8 17 9 18 10 8 11 7 12
REMARK SMILES IDX 6 13 5 14 4 15 3 16 2 17 1 18
REMARK H PARENT
REMARK INDEX MAP 4 1 6 2 8 3 10 4 12 5 14 6 16 7 18 8 2 9 1 10 3 11 5 12 7 13
REMARK INDEX MAP 9 14 11 15 13 16 15 17 17 18
ROOT
ATOM      1  C   UNL     1       9.559  33.295  16.751  1.00  0.00     0.000 C 
ENDROOT
BRANCH   1   2
ATOM      2  C   UNL     1       8.320  33.421  17.644  1.00  0.00     0.000 C 
BRANCH   2   3
ATOM      3  C   UNL     1       6.970  33.207  16.950  1.00  0.00     0.000 C 
BRANCH   3   4
ATOM      4  C   UNL     1       5.859  32.751  17.900  1.00  0.00     0.000 C 
BRANCH   4   5
ATOM      5  C   UNL     1       6.331  31.610  18.802  1.00  0.00     0.000 C 
BRANCH   5   6
ATOM      6  C   UNL     1       5.697  30.254  18.465  1.00  0.00     0.006 C 
BRANCH   6   7
ATOM      7  C   UNL     1       6.139  29.662  17.127  1.00  0.00     0.053 C 
BRANCH   7   8
ATOM      8  C   UNL     1       7.612  29.345  17.043  1.00  0.00     0.041 C 
ATOM      9  O   UNL     1       8.183  28.555  17.783  1.00  0.00    -0.550 OA
ATOM     10  O   UNL     1       8.250  30.054  16.080  1.00  0.00    -0.550 OA
ENDBRANCH   7   8
ENDBRANCH   6   7
ENDBRANCH   5   6
ENDBRANCH   4   5
ENDBRANCH   3   4
ENDBRANCH   2   3
ENDBRANCH   1   2
BRANCH   1  11
ATOM     11  C   UNL     1      10.803  32.804  17.494  1.00  0.00     0.000 C 
BRANCH  11  12
ATOM     12  C   UNL     1      10.511  31.512  18.262  1.00  0.00    -0.000 C 
BRANCH  12  13
ATOM     13  C   UNL     1      10.868  31.654  19.742  1.00  0.00    -0.000 C 
BRANCH  13  14
ATOM     14  C   UNL     1       9.646  31.792  20.656  1.00  0.00    -0.000 C 
BRANCH  14  15
ATOM     15  C   UNL     1       9.938  32.145  22.119  1.00  0.00    -0.000 C 
BRANCH  15  16
ATOM     16  C   UNL     1       8.980  33.191  22.698  1.00  0.00    -0.000 C 
BRANCH  16  17
ATOM     17  C   UNL     1       7.691  33.346  21.886  1.00  0.00    -0.003 C 
ATOM     18  C   UNL     1       6.431  33.341  22.736  1.00  0.00     0.004 C 
ENDBRANCH  16  17
ENDBRANCH  15  16
ENDBRANCH  14  15
ENDBRANCH  13  14
ENDBRANCH  12  13
ENDBRANCH  11  12
ENDBRANCH   1  11
TORSDOF 14
ENDMDL
MODEL 9
REMARK VINA RESULT:    -5.907      1.010      3.330
REMARK INTER + INTRA:         -12.297
REMARK INTER:                 -10.864
REMARK INTRA:                  -1.433
REMARK UNBOUND:                -1.556
REMARK SMILES CCCCCCCCCCCCCCCC(=O)[O-]
REMARK SMILES IDX 9 1 10 2 11 3 12 4 13 5 14 6 15 7 16 8 17 9 18 10 8 11 7 12
REMARK SMILES IDX 6 13 5 14 4 15 3 16 2 17 1 18
REMARK H PARENT
REMARK INDEX MAP 4 1 6 2 8 3 10 4 12 5 14 6 16 7 18 8 2 9 1 10 3 11 5 12 7 13
REMARK INDEX MAP 9 14 11 15 13 16 15 17 17 18
ROOT
ATOM      1  C   UNL     1       5.259  31.735  19.977  1.00  0.00     0.000 C 
ENDROOT
BRANCH   1   2
ATOM      2  C   UNL     1       6.459  32.169  20.824  1.00  0.00     0.000 C 
BRANCH   2   3
ATOM      3  C   UNL     1       7.826  32.101  20.133  1.00  0.00     0.000 C 
BRANCH   3   4
ATOM      4  C   UNL     1       9.004  32.045  21.110  1.00  0.00     0.000 C 
BRANCH   4   5
ATOM      5  C   UNL     1       8.746  32.910  22.344  1.00  0.00     0.000 C 
BRANCH   5   6
ATOM      6  C   UNL     1       9.885  32.877  23.371  1.00  0.00     0.006 C 
BRANCH   6   7
ATOM      7  C   UNL     1      11.137  32.133  22.905  1.00  0.00     0.053 C 
BRANCH   7   8
ATOM      8  C   UNL     1      12.311  32.241  23.846  1.00  0.00     0.041 C 
ATOM      9  O   UNL     1      12.226  32.633  25.003  1.00  0.00    -0.550 OA
ATOM     10  O   UNL     1      13.484  31.888  23.266  1.00  0.00    -0.550 OA
ENDBRANCH   7   8
ENDBRANCH   6   7
ENDBRANCH   5   6
ENDBRANCH   4   5
ENDBRANCH   3   4
ENDBRANCH   2   3
ENDBRANCH   1   2
BRANCH   1  11
ATOM     11  C   UNL     1       5.518  30.475  19.146  1.00  0.00     0.000 C 
BRANCH  11  12
ATOM     12  C   UNL     1       5.304  30.747  17.655  1.00  0.00    -0.000 C 
BRANCH  12  13
ATOM     13  C   UNL     1       6.098  29.763  16.794  1.00  0.00    -0.000 C 
BRANCH  13  14
ATOM     14  C   UNL     1       7.410  29.308  17.438  1.00  0.00    -0.000 C 
BRANCH  14  15
ATOM     15  C   UNL     1       8.624  30.214  17.204  1.00  0.00    -0.000 C 
BRANCH  15  16
ATOM     16  C   UNL     1       8.520  31.058  15.929  1.00  0.00    -0.000 C 
BRANCH  16  17
ATOM     17  C   UNL     1       8.704  32.558  16.180  1.00  0.00    -0.003 C 
ATOM     18  C   UNL     1      10.023  32.906  16.852  1.00  0.00     0.004 C 
ENDBRANCH  16  17
ENDBRANCH  15  16
ENDBRANCH  14  15
ENDBRANCH  13  14
ENDBRANCH  12  13
ENDBRANCH  11  12
ENDBRANCH   1  11
TORSDOF 14
ENDMDL
MODEL 10
REMARK VINA RESULT:    -5.889      3.029      5.501
REMARK INTER + INTRA:         -12.265
REMARK INTER:                 -10.602
REMARK INTRA:                  -1.664
REMARK UNBOUND:                -1.556
REMARK SMILES CCCCCCCCCCCCCCCC(=O)[O-]
REMARK SMILES IDX 9 1 10 2 11 3 12 4 13 5 14 6 15 7 16 8 17 9 18 10 8 11 7 12
REMARK SMILES IDX 6 13 5 14 4 15 3 16 2 17 1 18
REMARK H PARENT
REMARK INDEX MAP 4 1 6 2 8 3 10 4 12 5 14 6 16 7 18 8 2 9 1 10 3 11 5 12 7 13
REMARK INDEX MAP 9 14 11 15 13 16 15 17 17 18
ROOT
ATOM      1  C   UNL     1       8.927  33.354  23.173  1.00  0.00     0.000 C 
ENDROOT
BRANCH   1   2
ATOM      2  C   UNL     1      10.150  32.462  22.942  1.00  0.00     0.000 C 
BRANCH   2   3
ATOM      3  C   UNL     1      10.068  31.510  21.743  1.00  0.00     0.000 C 
BRANCH   3   4
ATOM      4  C   UNL     1      11.296  31.567  20.830  1.00  0.00     0.000 C 
BRANCH   4   5
ATOM      5  C   UNL     1      10.902  31.454  19.357  1.00  0.00     0.000 C 
BRANCH   5   6
ATOM      6  C   UNL     1       9.386  31.472  19.121  1.00  0.00     0.006 C 
BRANCH   6   7
ATOM      7  C   UNL     1       8.973  31.751  17.676  1.00  0.00     0.053 C 
BRANCH   7   8
ATOM      8  C   UNL     1       8.573  30.524  16.894  1.00  0.00     0.041 C 
ATOM      9  O   UNL     1       8.290  30.536  15.704  1.00  0.00    -0.550 OA
ATOM     10  O   UNL     1       8.525  29.406  17.658  1.00  0.00    -0.550 OA
ENDBRANCH   7   8
ENDBRANCH   6   7
ENDBRANCH   5   6
ENDBRANCH   4   5
ENDBRANCH   3   4
ENDBRANCH   2   3
ENDBRANCH   1   2
BRANCH   1  11
ATOM     11  C   UNL     1       7.854  33.217  22.090  1.00  0.00     0.000 C 
BRANCH  11  12
ATOM     12  C   UNL     1       6.452  33.373  22.683  1.00  0.00    -0.000 C 
BRANCH  12  13
ATOM     13  C   UNL     1       5.441  32.482  21.958  1.00  0.00    -0.000 C 
BRANCH  13  14
ATOM     14  C   UNL     1       5.885  32.076  20.550  1.00  0.00    -0.000 C 
BRANCH  14  15
ATOM     15  C   UNL     1       5.024  31.014  19.854  1.00  0.00    -0.000 C 
BRANCH  15  16
ATOM     16  C   UNL     1       5.083  31.085  18.326  1.00  0.00    -0.000 C 
BRANCH  16  17
ATOM     17  C   UNL     1       5.368  32.494  17.796  1.00  0.00    -0.003 C 
ATOM     18  C   UNL     1       4.232  33.074  16.967  1.00  0.00     0.004 C 
ENDBRANCH  16  17
ENDBRANCH  15  16
ENDBRANCH  14  15
ENDBRANCH  13  14
ENDBRANCH  12  13
ENDBRANCH  11  12
ENDBRANCH   1  11
TORSDOF 14
ENDMDL
MODEL 11
REMARK VINA RESULT:    -5.855      2.943      5.354
REMARK INTER + INTRA:         -12.203
REMARK INTER:                 -10.437
REMARK INTRA:                  -1.766
REMARK UNBOUND:                -1.556
REMARK SMILES CCCCCCCCCCCCCCCC(=O)[O-]
REMARK SMILES IDX 9 1 10 2 11 3 12 4 13 5 14 6 15 7 16 8 17 9 18 10 8 11 7 12
REMARK SMILES IDX 6 13 5 14 4 15 3 16 2 17 1 18
REMARK H PARENT
REMARK INDEX MAP 4 1 6 2 8 3 10 4 12 5 14 6 16 7 18 8 2 9 1 10 3 11 5 12 7 13
REMARK INDEX MAP 9 14 11 15 13 16 15 17 17 18
ROOT
ATOM      1  C   UNL     1       7.535  33.698  22.313  1.00  0.00     0.000 C 
ENDROOT
BRANCH   1   2
ATOM      2  C   UNL     1       8.746  33.300  23.162  1.00  0.00     0.000 C 
BRANCH   2   3
ATOM      3  C   UNL     1       9.983  32.831  22.387  1.00  0.00     0.000 C 
BRANCH   3   4
ATOM      4  C   UNL     1       9.723  31.610  21.500  1.00  0.00     0.000 C 
BRANCH   4   5
ATOM      5  C   UNL     1      10.406  31.754  20.139  1.00  0.00     0.000 C 
BRANCH   5   6
ATOM      6  C   UNL     1       9.464  31.535  18.949  1.00  0.00     0.006 C 
BRANCH   6   7
ATOM      7  C   UNL     1       9.162  32.795  18.139  1.00  0.00     0.053 C 
BRANCH   7   8
ATOM      8  C   UNL     1       9.668  32.758  16.718  1.00  0.00     0.041 C 
ATOM      9  O   UNL     1      10.837  32.942  16.404  1.00  0.00    -0.550 OA
ATOM     10  O   UNL     1       8.683  32.533  15.814  1.00  0.00    -0.550 OA
ENDBRANCH   7   8
ENDBRANCH   6   7
ENDBRANCH   5   6
ENDBRANCH   4   5
ENDBRANCH   3   4
ENDBRANCH   2   3
ENDBRANCH   1   2
BRANCH   1  11
ATOM     11  C   UNL     1       6.207  33.150  22.841  1.00  0.00     0.000 C 
BRANCH  11  12
ATOM     12  C   UNL     1       5.353  32.586  21.703  1.00  0.00    -0.000 C 
BRANCH  12  13
ATOM     13  C   UNL     1       6.228  32.019  20.583  1.00  0.00    -0.000 C 
BRANCH  13  14
ATOM     14  C   UNL     1       5.469  31.102  19.620  1.00  0.00    -0.000 C 
BRANCH  14  15
ATOM     15  C   UNL     1       5.703  31.356  18.125  1.00  0.00    -0.000 C 
BRANCH  15  16
ATOM     16  C   UNL     1       5.460  30.123  17.250  1.00  0.00    -0.000 C 
BRANCH  16  17
ATOM     17  C   UNL     1       6.721  29.630  16.535  1.00  0.00    -0.003 C 
ATOM     18  C   UNL     1       7.742  28.997  17.466  1.00  0.00     0.004 C 
ENDBRANCH  16  17
ENDBRANCH  15  16
ENDBRANCH  14  15
ENDBRANCH  13  14
ENDBRANCH  12  13
ENDBRANCH  11  12
ENDBRANCH   1  11
TORSDOF 14
ENDMDL
MODEL 12
REMARK VINA RESULT:    -5.809      2.794      6.055
REMARK INTER + INTRA:         -12.120
REMARK INTER:                 -10.817
REMARK INTRA:                  -1.303
REMARK UNBOUND:                -1.556
REMARK SMILES CCCCCCCCCCCCCCCC(=O)[O-]
REMARK SMILES IDX 9 1 10 2 11 3 12 4 13 5 14 6 15 7 16 8 17 9 18 10 8 11 7 12
REMARK SMILES IDX 6 13 5 14 4 15 3 16 2 17 1 18
REMARK H PARENT
REMARK INDEX MAP 4 1 6 2 8 3 10 4 12 5 14 6 16 7 18 8 2 9 1 10 3 11 5 12 7 13
REMARK INDEX MAP 9 14 11 15 13 16 15 17 17 18
ROOT
ATOM      1  C   UNL     1       8.779  32.291  16.085  1.00  0.00     0.000 C 
ENDROOT
BRANCH   1   2
ATOM      2  C   UNL     1       8.587  30.779  15.928  1.00  0.00     0.000 C 
BRANCH   2   3
ATOM      3  C   UNL     1       7.808  30.083  17.050  1.00  0.00     0.000 C 
BRANCH   3   4
ATOM      4  C   UNL     1       6.502  29.438  16.580  1.00  0.00     0.000 C 
BRANCH   4   5
ATOM      5  C   UNL     1       5.299  29.996  17.342  1.00  0.00     0.000 C 
BRANCH   5   6
ATOM      6  C   UNL     1       5.233  31.529  17.354  1.00  0.00     0.006 C 
BRANCH   6   7
ATOM      7  C   UNL     1       5.070  32.145  18.743  1.00  0.00     0.053 C 
BRANCH   7   8
ATOM      8  C   UNL     1       5.601  31.293  19.869  1.00  0.00     0.041 C 
ATOM      9  O   UNL     1       6.760  31.322  20.260  1.00  0.00    -0.550 OA
ATOM     10  O   UNL     1       4.664  30.460  20.386  1.00  0.00    -0.550 OA
ENDBRANCH   7   8
ENDBRANCH   6   7
ENDBRANCH   5   6
ENDBRANCH   4   5
ENDBRANCH   3   4
ENDBRANCH   2   3
ENDBRANCH   1   2
BRANCH   1  11
ATOM     11  C   UNL     1       9.370  32.697  17.436  1.00  0.00     0.000 C 
BRANCH  11  12
ATOM     12  C   UNL     1      10.851  32.318  17.525  1.00  0.00    -0.000 C 
BRANCH  12  13
ATOM     13  C   UNL     1      11.236  31.918  18.950  1.00  0.00    -0.000 C 
BRANCH  13  14
ATOM     14  C   UNL     1      10.031  31.687  19.867  1.00  0.00    -0.000 C 
BRANCH  14  15
ATOM     15  C   UNL     1      10.352  31.357  21.329  1.00  0.00    -0.000 C 
BRANCH  15  16
ATOM     16  C   UNL     1      11.844  31.448  21.662  1.00  0.00    -0.000 C 
BRANCH  16  17
ATOM     17  C   UNL     1      12.118  31.951  23.083  1.00  0.00    -0.003 C 
ATOM     18  C   UNL     1      10.856  32.234  23.882  1.00  0.00     0.004 C 
ENDBRANCH  16  17
ENDBRANCH  15  16
ENDBRANCH  14  15
ENDBRANCH  13  14
ENDBRANCH  12  13
ENDBRANCH  11  12
ENDBRANCH   1  11
TORSDOF 14
ENDMDL
MODEL 13
REMARK VINA RESULT:    -5.779      3.566      6.215
REMARK INTER + INTRA:         -12.064
REMARK INTER:                 -10.414
REMARK INTRA:                  -1.650
REMARK UNBOUND:                -1.556
REMARK SMILES CCCCCCCCCCCCCCCC(=O)[O-]
REMARK SMILES IDX 9 1 10 2 11 3 12 4 13 5 14 6 15 7 16 8 17 9 18 10 8 11 7 12
REMARK SMILES IDX 6 13 5 14 4 15 3 16 2 17 1 18
REMARK H PARENT
REMARK INDEX MAP 4 1 6 2 8 3 10 4 12 5 14 6 16 7 18 8 2 9 1 10 3 11 5 12 7 13
REMARK INDEX MAP 9 14 11 15 13 16 15 17 17 18
ROOT
ATOM      1  C   UNL     1      10.211  32.819  22.707  1.00  0.00     0.000 C 
ENDROOT
BRANCH   1   2
ATOM      2  C   UNL     1       8.848  33.312  23.201  1.00  0.00     0.000 C 
BRANCH   2   3
ATOM      3  C   UNL     1       7.744  33.401  22.141  1.00  0.00     0.000 C 
BRANCH   3   4
ATOM      4  C   UNL     1       6.330  33.303  22.719  1.00  0.00     0.000 C 
BRANCH   4   5
ATOM      5  C   UNL     1       5.412  32.483  21.812  1.00  0.00     0.000 C 
BRANCH   5   6
ATOM      6  C   UNL     1       6.096  31.978  20.535  1.00  0.00     0.006 C 
BRANCH   6   7
ATOM      7  C   UNL     1       5.229  31.066  19.669  1.00  0.00     0.053 C 
BRANCH   7   8
ATOM      8  C   UNL     1       4.919  31.617  18.299  1.00  0.00     0.041 C 
ATOM      9  O   UNL     1       5.280  32.719  17.909  1.00  0.00    -0.550 OA
ATOM     10  O   UNL     1       4.166  30.775  17.551  1.00  0.00    -0.550 OA
ENDBRANCH   7   8
ENDBRANCH   6   7
ENDBRANCH   5   6
ENDBRANCH   4   5
ENDBRANCH   3   4
ENDBRANCH   2   3
ENDBRANCH   1   2
BRANCH   1  11
ATOM     11  C   UNL     1      10.133  31.559  21.842  1.00  0.00     0.000 C 
BRANCH  11  12
ATOM     12  C   UNL     1      11.319  31.479  20.878  1.00  0.00    -0.000 C 
BRANCH  12  13
ATOM     13  C   UNL     1      10.869  31.674  19.429  1.00  0.00    -0.000 C 
BRANCH  13  14
ATOM     14  C   UNL     1       9.352  31.576  19.241  1.00  0.00    -0.000 C 
BRANCH  14  15
ATOM     15  C   UNL     1       8.776  32.311  18.025  1.00  0.00    -0.000 C 
BRANCH  15  16
ATOM     16  C   UNL     1       8.935  31.538  16.712  1.00  0.00    -0.000 C 
BRANCH  16  17
ATOM     17  C   UNL     1       7.799  30.544  16.453  1.00  0.00    -0.003 C 
ATOM     18  C   UNL     1       7.965  29.224  17.189  1.00  0.00     0.004 C 
ENDBRANCH  16  17
ENDBRANCH  15  16
ENDBRANCH  14  15
ENDBRANCH  13  14
ENDBRANCH  12  13
ENDBRANCH  11  12
ENDBRANCH   1  11
TORSDOF 14
ENDMDL
MODEL 14
REMARK VINA RESULT:    -5.757      3.065      6.120
REMARK INTER + INTRA:         -12.024
REMARK INTER:                 -10.739
REMARK INTRA:                  -1.285
REMARK UNBOUND:                -1.556
REMARK SMILES CCCCCCCCCCCCCCCC(=O)[O-]
REMARK SMILES IDX 9 1 10 2 11 3 12 4 13 5 14 6 15 7 16 8 17 9 18 10 8 11 7 12
REMARK SMILES IDX 6 13 5 14 4 15 3 16 2 17 1 18
REMARK H PARENT
REMARK INDEX MAP 4 1 6 2 8 3 10 4 12 5 14 6 16 7 18 8 2 9 1 10 3 11 5 12 7 13
REMARK INDEX MAP 9 14 11 15 13 16 15 17 17 18
ROOT
ATOM      1  C   UNL     1       8.964  32.888  16.144  1.00  0.00     0.000 C 
ENDROOT
BRANCH   1   2
ATOM      2  C   UNL     1       7.905  33.022  17.242  1.00  0.00     0.000 C 
BRANCH   2   3
ATOM      3  C   UNL     1       6.533  33.537  16.790  1.00  0.00     0.000 C 
BRANCH   3   4
ATOM      4  C   UNL     1       5.363  32.919  17.560  1.00  0.00     0.000 C 
BRANCH   4   5
ATOM      5  C   UNL     1       5.749  31.571  18.172  1.00  0.00     0.000 C 
BRANCH   5   6
ATOM      6  C   UNL     1       5.333  30.365  17.321  1.00  0.00     0.006 C 
BRANCH   6   7
ATOM      7  C   UNL     1       6.499  29.595  16.701  1.00  0.00     0.053 C 
BRANCH   7   8
ATOM      8  C   UNL     1       7.624  29.289  17.659  1.00  0.00     0.041 C 
ATOM      9  O   UNL     1       8.809  29.432  17.388  1.00  0.00    -0.550 OA
ATOM     10  O   UNL     1       7.187  28.805  18.847  1.00  0.00    -0.550 OA
ENDBRANCH   7   8
ENDBRANCH   6   7
ENDBRANCH   5   6
ENDBRANCH   4   5
ENDBRANCH   3   4
ENDBRANCH   2   3
ENDBRANCH   1   2
BRANCH   1  11
ATOM     11  C   UNL     1      10.361  32.560  16.675  1.00  0.00     0.000 C 
BRANCH  11  12
ATOM     12  C   UNL     1      10.520  33.024  18.125  1.00  0.00    -0.000 C 
BRANCH  12  13
ATOM     13  C   UNL     1      10.759  31.839  19.063  1.00  0.00    -0.000 C 
BRANCH  13  14
ATOM     14  C   UNL     1       9.600  31.581  20.030  1.00  0.00    -0.000 C 
BRANCH  14  15
ATOM     15  C   UNL     1       9.992  31.238  21.473  1.00  0.00    -0.000 C 
BRANCH  15  16
ATOM     16  C   UNL     1      10.261  32.469  22.343  1.00  0.00    -0.000 C 
BRANCH  16  17
ATOM     17  C   UNL     1      10.965  32.136  23.662  1.00  0.00    -0.003 C 
ATOM     18  C   UNL     1      12.482  32.179  23.570  1.00  0.00     0.004 C 
ENDBRANCH  16  17
ENDBRANCH  15  16
ENDBRANCH  14  15
ENDBRANCH  13  14
ENDBRANCH  12  13
ENDBRANCH  11  12
ENDBRANCH   1  11
TORSDOF 14
ENDMDL
MODEL 15
REMARK VINA RESULT:    -5.711      4.420      6.569
REMARK INTER + INTRA:         -11.940
REMARK INTER:                 -10.027
REMARK INTRA:                  -1.913
REMARK UNBOUND:                -1.556
REMARK SMILES CCCCCCCCCCCCCCCC(=O)[O-]
REMARK SMILES IDX 9 1 10 2 11 3 12 4 13 5 14 6 15 7 16 8 17 9 18 10 8 11 7 12
REMARK SMILES IDX 6 13 5 14 4 15 3 16 2 17 1 18
REMARK H PARENT
REMARK INDEX MAP 4 1 6 2 8 3 10 4 12 5 14 6 16 7 18 8 2 9 1 10 3 11 5 12 7 13
REMARK INDEX MAP 9 14 11 15 13 16 15 17 17 18
ROOT
ATOM      1  C   UNL     1       8.052  29.982  16.704  1.00  0.00     0.000 C 
ENDROOT
BRANCH   1   2
ATOM      2  C   UNL     1       7.355  29.464  17.967  1.00  0.00     0.000 C 
BRANCH   2   3
ATOM      3  C   UNL     1       5.866  29.806  18.098  1.00  0.00     0.000 C 
BRANCH   3   4
ATOM      4  C   UNL     1       5.549  30.712  19.291  1.00  0.00     0.000 C 
BRANCH   4   5
ATOM      5  C   UNL     1       5.363  32.165  18.854  1.00  0.00     0.000 C 
BRANCH   5   6
ATOM      6  C   UNL     1       5.160  32.334  17.343  1.00  0.00     0.006 C 
BRANCH   6   7
ATOM      7  C   UNL     1       5.566  33.703  16.798  1.00  0.00     0.053 C 
BRANCH   7   8
ATOM      8  C   UNL     1       4.462  34.442  16.083  1.00  0.00     0.041 C 
ATOM      9  O   UNL     1       4.652  35.248  15.182  1.00  0.00    -0.550 OA
ATOM     10  O   UNL     1       3.231  34.145  16.567  1.00  0.00    -0.550 OA
ENDBRANCH   7   8
ENDBRANCH   6   7
ENDBRANCH   5   6
ENDBRANCH   4   5
ENDBRANCH   3   4
ENDBRANCH   2   3
ENDBRANCH   1   2
BRANCH   1  11
ATOM     11  C   UNL     1       8.811  31.294  16.917  1.00  0.00     0.000 C 
BRANCH  11  12
ATOM     12  C   UNL     1       9.918  31.126  17.960  1.00  0.00    -0.000 C 
BRANCH  12  13
ATOM     13  C   UNL     1       9.845  32.221  19.026  1.00  0.00    -0.000 C 
BRANCH  13  14
ATOM     14  C   UNL     1       9.494  31.694  20.421  1.00  0.00    -0.000 C 
BRANCH  14  15
ATOM     15  C   UNL     1       8.213  32.257  21.049  1.00  0.00    -0.000 C 
BRANCH  15  16
ATOM     16  C   UNL     1       8.474  33.243  22.191  1.00  0.00    -0.000 C 
BRANCH  16  17
ATOM     17  C   UNL     1       7.194  33.849  22.772  1.00  0.00    -0.003 C 
ATOM     18  C   UNL     1       5.951  33.013  22.511  1.00  0.00     0.004 C 
ENDBRANCH  16  17
ENDBRANCH  15  16
ENDBRANCH  14  15
ENDBRANCH  13  14
ENDBRANCH  12  13
ENDBRANCH  11  12
ENDBRANCH   1  11
TORSDOF 14
ENDMDL
MODEL 16
REMARK VINA RESULT:    -5.683      3.408      7.650
REMARK INTER + INTRA:         -11.890
REMARK INTER:                 -11.021
REMARK INTRA:                  -0.869
REMARK UNBOUND:                -1.556
REMARK SMILES CCCCCCCCCCCCCCCC(=O)[O-]
REMARK SMILES IDX 9 1 10 2 11 3 12 4 13 5 14 6 15 7 16 8 17 9 18 10 8 11 7 12
REMARK SMILES IDX 6 13 5 14 4 15 3 16 2 17 1 18
REMARK H PARENT
REMARK INDEX MAP 4 1 6 2 8 3 10 4 12 5 14 6 16 7 18 8 2 9 1 10 3 11 5 12 7 13
REMARK INDEX MAP 9 14 11 15 13 16 15 17 17 18
ROOT
ATOM      1  C   UNL     1      10.513  31.861  20.221  1.00  0.00     0.000 C 
ENDROOT
BRANCH   1   2
ATOM      2  C   UNL     1       9.271  31.336  19.496  1.00  0.00     0.000 C 
BRANCH   2   3
ATOM      3  C   UNL     1       8.053  32.267  19.493  1.00  0.00     0.000 C 
BRANCH   3   4
ATOM      4  C   UNL     1       6.783  31.616  20.049  1.00  0.00     0.000 C 
BRANCH   4   5
ATOM      5  C   UNL     1       5.583  31.868  19.136  1.00  0.00     0.000 C 
BRANCH   5   6
ATOM      6  C   UNL     1       5.864  31.587  17.655  1.00  0.00     0.006 C 
BRANCH   6   7
ATOM      7  C   UNL     1       5.971  30.104  17.300  1.00  0.00     0.053 C 
BRANCH   7   8
ATOM      8  C   UNL     1       7.372  29.637  16.991  1.00  0.00     0.041 C 
ATOM      9  O   UNL     1       8.046  30.066  16.064  1.00  0.00    -0.550 OA
ATOM     10  O   UNL     1       7.799  28.662  17.831  1.00  0.00    -0.550 OA
ENDBRANCH   7   8
ENDBRANCH   6   7
ENDBRANCH   5   6
ENDBRANCH   4   5
ENDBRANCH   3   4
ENDBRANCH   2   3
ENDBRANCH   1   2
BRANCH   1  11
ATOM     11  C   UNL     1      10.520  31.562  21.722  1.00  0.00     0.000 C 
BRANCH  11  12
ATOM     12  C   UNL     1      11.946  31.582  22.279  1.00  0.00    -0.000 C 
BRANCH  12  13
ATOM     13  C   UNL     1      11.984  32.194  23.681  1.00  0.00    -0.000 C 
BRANCH  13  14
ATOM     14  C   UNL     1      10.595  32.424  24.285  1.00  0.00    -0.000 C 
BRANCH  14  15
ATOM     15  C   UNL     1      10.567  33.023  25.696  1.00  0.00    -0.000 C 
BRANCH  15  16
ATOM     16  C   UNL     1      11.878  33.707  26.096  1.00  0.00    -0.000 C 
BRANCH  16  17
ATOM     17  C   UNL     1      11.671  34.955  26.959  1.00  0.00    -0.003 C 
ATOM     18  C   UNL     1      12.966  35.559  27.479  1.00  0.00     0.004 C 
ENDBRANCH  16  17
ENDBRANCH  15  16
ENDBRANCH  14  15
ENDBRANCH  13  14
ENDBRANCH  12  13
ENDBRANCH  11  12
ENDBRANCH   1  11
TORSDOF 14
ENDMDL
MODEL 17
REMARK VINA RESULT:    -5.675      3.376      7.522
REMARK INTER + INTRA:         -11.875
REMARK INTER:                 -10.923
REMARK INTRA:                  -0.952
REMARK UNBOUND:                -1.556
REMARK SMILES CCCCCCCCCCCCCCCC(=O)[O-]
REMARK SMILES IDX 9 1 10 2 11 3 12 4 13 5 14 6 15 7 16 8 17 9 18 10 8 11 7 12
REMARK SMILES IDX 6 13 5 14 4 15 3 16 2 17 1 18
REMARK H PARENT
REMARK INDEX MAP 4 1 6 2 8 3 10 4 12 5 14 6 16 7 18 8 2 9 1 10 3 11 5 12 7 13
REMARK INDEX MAP 9 14 11 15 13 16 15 17 17 18
ROOT
ATOM      1  C   UNL     1       9.627  31.789  20.482  1.00  0.00     0.000 C 
ENDROOT
BRANCH   1   2
ATOM      2  C   UNL     1      10.702  31.808  19.391  1.00  0.00     0.000 C 
BRANCH   2   3
ATOM      3  C   UNL     1      10.251  31.349  17.999  1.00  0.00     0.000 C 
BRANCH   3   4
ATOM      4  C   UNL     1       9.448  32.407  17.236  1.00  0.00     0.000 C 
BRANCH   4   5
ATOM      5  C   UNL     1       8.097  31.856  16.778  1.00  0.00     0.000 C 
BRANCH   5   6
ATOM      6  C   UNL     1       8.129  30.367  16.412  1.00  0.00     0.006 C 
BRANCH   6   7
ATOM      7  C   UNL     1       6.877  29.588  16.816  1.00  0.00     0.053 C 
BRANCH   7   8
ATOM      8  C   UNL     1       6.410  29.847  18.227  1.00  0.00     0.041 C 
ATOM      9  O   UNL     1       7.095  29.642  19.221  1.00  0.00    -0.550 OA
ATOM     10  O   UNL     1       5.134  30.301  18.285  1.00  0.00    -0.550 OA
ENDBRANCH   7   8
ENDBRANCH   6   7
ENDBRANCH   5   6
ENDBRANCH   4   5
ENDBRANCH   3   4
ENDBRANCH   2   3
ENDBRANCH   1   2
BRANCH   1  11
ATOM     11  C   UNL     1      10.194  31.705  21.901  1.00  0.00     0.000 C 
BRANCH  11  12
ATOM     12  C   UNL     1      11.708  31.481  21.876  1.00  0.00    -0.000 C 
BRANCH  12  13
ATOM     13  C   UNL     1      12.366  32.001  23.155  1.00  0.00    -0.000 C 
BRANCH  13  14
ATOM     14  C   UNL     1      11.374  32.249  24.295  1.00  0.00    -0.000 C 
BRANCH  14  15
ATOM     15  C   UNL     1      11.864  33.165  25.424  1.00  0.00    -0.000 C 
BRANCH  15  16
ATOM     16  C   UNL     1      10.734  33.915  26.136  1.00  0.00    -0.000 C 
BRANCH  16  17
ATOM     17  C   UNL     1      11.235  35.019  27.071  1.00  0.00    -0.003 C 
ATOM     18  C   UNL     1      12.747  35.047  27.225  1.00  0.00     0.004 C 
ENDBRANCH  16  17
ENDBRANCH  15  16
ENDBRANCH  14  15
ENDBRANCH  13  14
ENDBRANCH  12  13
ENDBRANCH  11  12
ENDBRANCH   1  11
TORSDOF 14
ENDMDL
MODEL 18
REMARK VINA RESULT:    -5.667      1.163      2.375
REMARK INTER + INTRA:         -11.861
REMARK INTER:                 -10.700
REMARK INTRA:                  -1.160
REMARK UNBOUND:                -1.556
REMARK SMILES CCCCCCCCCCCCCCCC(=O)[O-]
REMARK SMILES IDX 9 1 10 2 11 3 12 4 13 5 14 6 15 7 16 8 17 9 18 10 8 11 7 12
REMARK SMILES IDX 6 13 5 14 4 15 3 16 2 17 1 18
REMARK H PARENT
REMARK INDEX MAP 4 1 6 2 8 3 10 4 12 5 14 6 16 7 18 8 2 9 1 10 3 11 5 12 7 13
REMARK INDEX MAP 9 14 11 15 13 16 15 17 17 18
ROOT
ATOM      1  C   UNL     1      10.376  32.720  17.253  1.00  0.00     0.000 C 
ENDROOT
BRANCH   1   2
ATOM      2  C   UNL     1      10.944  31.522  18.019  1.00  0.00     0.000 C 
BRANCH   2   3
ATOM      3  C   UNL     1      10.860  31.603  19.548  1.00  0.00     0.000 C 
BRANCH   3   4
ATOM      4  C   UNL     1       9.448  31.885  20.069  1.00  0.00     0.000 C 
BRANCH   4   5
ATOM      5  C   UNL     1       9.422  31.955  21.596  1.00  0.00     0.000 C 
BRANCH   5   6
ATOM      6  C   UNL     1      10.730  31.504  22.258  1.00  0.00     0.006 C 
BRANCH   6   7
ATOM      7  C   UNL     1      11.026  32.174  23.599  1.00  0.00     0.053 C 
BRANCH   7   8
ATOM      8  C   UNL     1      12.481  32.157  23.996  1.00  0.00     0.041 C 
ATOM      9  O   UNL     1      13.397  31.898  23.226  1.00  0.00    -0.550 OA
ATOM     10  O   UNL     1      12.672  32.427  25.311  1.00  0.00    -0.550 OA
ENDBRANCH   7   8
ENDBRANCH   6   7
ENDBRANCH   5   6
ENDBRANCH   4   5
ENDBRANCH   3   4
ENDBRANCH   2   3
ENDBRANCH   1   2
BRANCH   1  11
ATOM     11  C   UNL     1       9.097  32.400  16.474  1.00  0.00     0.000 C 
BRANCH  11  12
ATOM     12  C   UNL     1       7.962  33.347  16.869  1.00  0.00    -0.000 C 
BRANCH  12  13
ATOM     13  C   UNL     1       7.051  32.711  17.921  1.00  0.00    -0.000 C 
BRANCH  13  14
ATOM     14  C   UNL     1       5.673  32.319  17.379  1.00  0.00    -0.000 C 
BRANCH  14  15
ATOM     15  C   UNL     1       4.965  31.171  18.109  1.00  0.00    -0.000 C 
BRANCH  15  16
ATOM     16  C   UNL     1       5.824  29.910  18.242  1.00  0.00    -0.000 C 
BRANCH  16  17
ATOM     17  C   UNL     1       6.604  29.572  16.967  1.00  0.00    -0.003 C 
ATOM     18  C   UNL     1       8.045  29.161  17.226  1.00  0.00     0.004 C 
ENDBRANCH  16  17
ENDBRANCH  15  16
ENDBRANCH  14  15
ENDBRANCH  13  14
ENDBRANCH  12  13
ENDBRANCH  11  12
ENDBRANCH   1  11
TORSDOF 14
ENDMDL
MODEL 19
REMARK VINA RESULT:    -5.619      3.729      6.792
REMARK INTER + INTRA:         -11.774
REMARK INTER:                 -10.913
REMARK INTRA:                  -0.861
REMARK UNBOUND:                -1.556
REMARK SMILES CCCCCCCCCCCCCCCC(=O)[O-]
REMARK SMILES IDX 9 1 10 2 11 3 12 4 13 5 14 6 15 7 16 8 17 9 18 10 8 11 7 12
REMARK SMILES IDX 6 13 5 14 4 15 3 16 2 17 1 18
REMARK H PARENT
REMARK INDEX MAP 4 1 6 2 8 3 10 4 12 5 14 6 16 7 18 8 2 9 1 10 3 11 5 12 7 13
REMARK INDEX MAP 9 14 11 15 13 16 15 17 17 18
ROOT
ATOM      1  C   UNL     1      12.150  32.569  24.698  1.00  0.00     0.000 C 
ENDROOT
BRANCH   1   2
ATOM      2  C   UNL     1      10.787  32.656  25.391  1.00  0.00     0.000 C 
BRANCH   2   3
ATOM      3  C   UNL     1      10.722  33.557  26.629  1.00  0.00     0.000 C 
BRANCH   3   4
ATOM      4  C   UNL     1      11.684  34.747  26.572  1.00  0.00     0.000 C 
BRANCH   4   5
ATOM      5  C   UNL     1      12.767  34.640  27.646  1.00  0.00     0.000 C 
BRANCH   5   6
ATOM      6  C   UNL     1      12.716  33.333  28.447  1.00  0.00     0.006 C 
BRANCH   6   7
ATOM      7  C   UNL     1      13.773  33.220  29.544  1.00  0.00     0.053 C 
BRANCH   7   8
ATOM      8  C   UNL     1      13.509  34.080  30.755  1.00  0.00     0.041 C 
ATOM      9  O   UNL     1      12.451  34.086  31.371  1.00  0.00    -0.550 OA
ATOM     10  O   UNL     1      14.558  34.877  31.074  1.00  0.00    -0.550 OA
ENDBRANCH   7   8
ENDBRANCH   6   7
ENDBRANCH   5   6
ENDBRANCH   4   5
ENDBRANCH   3   4
ENDBRANCH   2   3
ENDBRANCH   1   2
BRANCH   1  11
ATOM     11  C   UNL     1      12.067  32.140  23.231  1.00  0.00     0.000 C 
BRANCH  11  12
ATOM     12  C   UNL     1      10.615  32.123  22.745  1.00  0.00    -0.000 C 
BRANCH  12  13
ATOM     13  C   UNL     1      10.509  31.531  21.339  1.00  0.00    -0.000 C 
BRANCH  13  14
ATOM     14  C   UNL     1       9.155  31.784  20.669  1.00  0.00    -0.000 C 
BRANCH  14  15
ATOM     15  C   UNL     1       9.083  31.491  19.166  1.00  0.00    -0.000 C 
BRANCH  15  16
ATOM     16  C   UNL     1       8.290  32.536  18.376  1.00  0.00    -0.000 C 
BRANCH  16  17
ATOM     17  C   UNL     1       9.179  33.486  17.568  1.00  0.00    -0.003 C 
ATOM     18  C   UNL     1      10.593  32.968  17.359  1.00  0.00     0.004 C 
ENDBRANCH  16  17
ENDBRANCH  15  16
ENDBRANCH  14  15
ENDBRANCH  13  14
ENDBRANCH  12  13
ENDBRANCH  11  12
ENDBRANCH   1  11
TORSDOF 14
ENDMDL
MODEL 20
REMARK VINA RESULT:    -5.614      1.717      3.229
REMARK INTER + INTRA:         -11.764
REMARK INTER:                 -10.790
REMARK INTRA:                  -0.974
REMARK UNBOUND:                -1.556
REMARK SMILES CCCCCCCCCCCCCCCC(=O)[O-]
REMARK SMILES IDX 9 1 10 2 11 3 12 4 13 5 14 6 15 7 16 8 17 9 18 10 8 11 7 12
REMARK SMILES IDX 6 13 5 14 4 15 3 16 2 17 1 18
REMARK H PARENT
REMARK INDEX MAP 4 1 6 2 8 3 10 4 12 5 14 6 16 7 18 8 2 9 1 10 3 11 5 12 7 13
REMARK INDEX MAP 9 14 11 15 13 16 15 17 17 18
ROOT
ATOM      1  C   UNL     1      11.131  31.814  19.041  1.00  0.00     0.000 C 
ENDROOT
BRANCH   1   2
ATOM      2  C   UNL     1      10.085  31.686  20.152  1.00  0.00     0.000 C 
BRANCH   2   3
ATOM      3  C   UNL     1      10.632  31.415  21.559  1.00  0.00     0.000 C 
BRANCH   3   4
ATOM      4  C   UNL     1      10.109  32.391  22.617  1.00  0.00     0.000 C 
BRANCH   4   5
ATOM      5  C   UNL     1      10.856  32.229  23.941  1.00  0.00     0.000 C 
BRANCH   5   6
ATOM      6  C   UNL     1      10.248  33.035  25.096  1.00  0.00     0.006 C 
BRANCH   6   7
ATOM      7  C   UNL     1      11.273  33.716  26.002  1.00  0.00     0.053 C 
BRANCH   7   8
ATOM      8  C   UNL     1      11.429  33.073  27.358  1.00  0.00     0.041 C 
ATOM      9  O   UNL     1      10.497  32.850  28.120  1.00  0.00    -0.550 OA
ATOM     10  O   UNL     1      12.720  32.797  27.665  1.00  0.00    -0.550 OA
ENDBRANCH   7   8
ENDBRANCH   6   7
ENDBRANCH   5   6
ENDBRANCH   4   5
ENDBRANCH   3   4
ENDBRANCH   2   3
ENDBRANCH   1   2
BRANCH   1  11
ATOM     11  C   UNL     1      10.553  32.288  17.705  1.00  0.00     0.000 C 
BRANCH  11  12
ATOM     12  C   UNL     1       9.161  32.896  17.894  1.00  0.00    -0.000 C 
BRANCH  12  13
ATOM     13  C   UNL     1       8.236  32.534  16.730  1.00  0.00    -0.000 C 
BRANCH  13  14
ATOM     14  C   UNL     1       8.388  31.085  16.257  1.00  0.00    -0.000 C 
BRANCH  14  15
ATOM     15  C   UNL     1       7.751  30.015  17.153  1.00  0.00    -0.000 C 
BRANCH  15  16
ATOM     16  C   UNL     1       6.352  29.590  16.697  1.00  0.00    -0.000 C 
BRANCH  16  17
ATOM     17  C   UNL     1       5.236  30.472  17.266  1.00  0.00    -0.003 C 
ATOM     18  C   UNL     1       5.458  30.876  18.714  1.00  0.00     0.004 C 
ENDBRANCH  16  17
ENDBRANCH  15  16
ENDBRANCH  14  15
ENDBRANCH  13  14
ENDBRANCH  12  13
ENDBRANCH  11  12
ENDBRANCH   1  11
TORSDOF 14
ENDMDL
