MODEL 1
REMARK VINA RESULT:    -5.893      0.000      0.000
REMARK INTER + INTRA:         -12.716
REMARK INTER:                 -10.716
REMARK INTRA:                  -2.000
REMARK UNBOUND:                -2.000
REMARK SMILES CCCCCCCCCCCCCCCC(=O)[O-]
REMARK SMILES IDX 9 1 10 2 11 3 12 4 13 5 14 6 15 7 16 8 17 9 18 10 8 11 7 12
REMARK SMILES IDX 6 13 5 14 4 15 3 16 2 17 1 18
REMARK H PARENT
REMARK INDEX MAP 4 1 6 2 8 3 10 4 12 5 14 6 16 7 18 8 2 9 1 10 3 11 5 12 7 13
REMARK INDEX MAP 9 14 11 15 13 16 15 17 17 18
ROOT
ATOM      1  C   UNL     1       5.203  31.471  19.570  1.00  0.00     0.000 C 
ENDROOT
BRANCH   1   2
ATOM      2  C   UNL     1       6.192  31.909  20.655  1.00  0.00     0.000 C 
BRANCH   2   3
ATOM      3  C   UNL     1       5.574  32.526  21.915  1.00  0.00     0.000 C 
BRANCH   3   4
ATOM      4  C   UNL     1       6.575  33.311  22.767  1.00  0.00     0.000 C 
BRANCH   4   5
ATOM      5  C   UNL     1       7.914  33.473  22.045  1.00  0.00     0.000 C 
BRANCH   5   6
ATOM      6  C   UNL     1       9.132  33.201  22.936  1.00  0.00     0.006 C 
BRANCH   6   7
ATOM      7  C   UNL     1      10.220  32.351  22.281  1.00  0.00     0.053 C 
BRANCH   7   8
ATOM      8  C   UNL     1      11.423  32.095  23.155  1.00  0.00     0.041 C 
ATOM      9  O   UNL     1      12.523  31.773  22.726  1.00  0.00    -0.550 OA
ATOM     10  O   UNL     1      11.150  32.225  24.477  1.00  0.00    -0.550 OA
ENDBRANCH   7   8
ENDBRANCH   6   7
ENDBRANCH   5   6
ENDBRANCH   4   5
ENDBRANCH   3   4
ENDBRANCH   2   3
ENDBRANCH   1   2
BRANCH   1  11
ATOM     11  C   UNL     1       5.611  30.183  18.852  1.00  0.00     0.000 C 
BRANCH  11  12
ATOM     12  C   UNL     1       5.517  30.348  17.333  1.00  0.00    -0.000 C 
BRANCH  12  13
ATOM     13  C   UNL     1       6.616  29.557  16.621  1.00  0.00    -0.000 C 
BRANCH  13  14
ATOM     14  C   UNL     1       7.848  29.301  17.493  1.00  0.00    -0.000 C 
BRANCH  14  15
ATOM     15  C   UNL     1       8.969  30.343  17.395  1.00  0.00    -0.000 C 
BRANCH  15  16
ATOM     16  C   UNL     1       9.151  31.168  18.673  1.00  0.00    -0.000 C 
BRANCH  16  17
ATOM     17  C   UNL     1       9.080  32.679  18.433  1.00  0.00    -0.003 C 
ATOM     18  C   UNL     1       7.956  33.096  17.498  1.00  0.00     0.004 C 
ENDBRANCH  16  17
ENDBRANCH  15  16
ENDBRANCH  14  15
ENDBRANCH  13  14
ENDBRANCH  12  13
ENDBRANCH  11  12
ENDBRANCH   1  11
TORSDOF 14
ENDMDL
MODEL 2
REMARK VINA RESULT:    -5.850      1.954      3.881
REMARK INTER + INTRA:         -12.639
REMARK INTER:                 -11.052
REMARK INTRA:                  -1.587
REMARK UNBOUND:                -2.000
REMARK SMILES CCCCCCCCCCCCCCCC(=O)[O-]
REMARK SMILES IDX 9 1 10 2 11 3 12 4 13 5 14 6 15 7 16 8 17 9 18 10 8 11 7 12
REMARK SMILES IDX 6 13 5 14 4 15 3 16 2 17 1 18
REMARK H PARENT
REMARK INDEX MAP 4 1 6 2 8 3 10 4 12 5 14 6 16 7 18 8 2 9 1 10 3 11 5 12 7 13
REMARK INDEX MAP 9 14 11 15 13 16 15 17 17 18
ROOT
ATOM      1  C   UNL     1      10.243  32.456  16.502  1.00  0.00     0.000 C 
ENDROOT
BRANCH   1   2
ATOM      2  C   UNL     1      10.643  32.908  17.909  1.00  0.00     0.000 C 
BRANCH   2   3
ATOM      3  C   UNL     1      10.851  31.790  18.938  1.00  0.00     0.000 C 
BRANCH   3   4
ATOM      4  C   UNL     1       9.792  31.770  20.043  1.00  0.00     0.000 C 
BRANCH   4   5
ATOM      5  C   UNL     1      10.393  31.345  21.383  1.00  0.00     0.000 C 
BRANCH   5   6
ATOM      6  C   UNL     1      10.553  32.499  22.382  1.00  0.00     0.006 C 
BRANCH   6   7
ATOM      7  C   UNL     1      10.667  32.062  23.842  1.00  0.00     0.053 C 
BRANCH   7   8
ATOM      8  C   UNL     1      12.021  32.307  24.461  1.00  0.00     0.041 C 
ATOM      9  O   UNL     1      13.050  31.757  24.092  1.00  0.00    -0.550 OA
ATOM     10  O   UNL     1      11.976  33.179  25.498  1.00  0.00    -0.550 OA
ENDBRANCH   7   8
ENDBRANCH   6   7
ENDBRANCH   5   6
ENDBRANCH   4   5
ENDBRANCH   3   4
ENDBRANCH   2   3
ENDBRANCH   1   2
BRANCH   1  11
ATOM     11  C   UNL     1       8.822  32.865  16.106  1.00  0.00     0.000 C 
BRANCH  11  12
ATOM     12  C   UNL     1       8.050  33.405  17.312  1.00  0.00    -0.000 C 
BRANCH  12  13
ATOM     13  C   UNL     1       6.546  33.173  17.157  1.00  0.00    -0.000 C 
BRANCH  13  14
ATOM     14  C   UNL     1       5.979  32.154  18.150  1.00  0.00    -0.000 C 
BRANCH  14  15
ATOM     15  C   UNL     1       5.058  31.080  17.558  1.00  0.00    -0.000 C 
BRANCH  15  16
ATOM     16  C   UNL     1       5.799  29.811  17.125  1.00  0.00    -0.000 C 
BRANCH  16  17
ATOM     17  C   UNL     1       7.009  29.486  18.005  1.00  0.00    -0.003 C 
ATOM     18  C   UNL     1       8.318  29.406  17.235  1.00  0.00     0.004 C 
ENDBRANCH  16  17
ENDBRANCH  15  16
ENDBRANCH  14  15
ENDBRANCH  13  14
ENDBRANCH  12  13
ENDBRANCH  11  12
ENDBRANCH   1  11
TORSDOF 14
ENDMDL
MODEL 3
REMARK VINA RESULT:    -5.723      1.747      3.338
REMARK INTER + INTRA:         -12.407
REMARK INTER:                 -10.605
REMARK INTRA:                  -1.803
REMARK UNBOUND:                -2.000
REMARK SMILES CCCCCCCCCCCCCCCC(=O)[O-]
REMARK SMILES IDX 9 1 10 2 11 3 12 4 13 5 14 6 15 7 16 8 17 9 18 10 8 11 7 12
REMARK SMILES IDX 6 13 5 14 4 15 3 16 2 17 1 18
REMARK H PARENT
REMARK INDEX MAP 4 1 6 2 8 3 10 4 12 5 14 6 16 7 18 8 2 9 1 10 3 11 5 12 7 13
REMARK INDEX MAP 9 14 11 15 13 16 15 17 17 18
ROOT
ATOM      1  C   UNL     1       8.495  31.312  16.739  1.00  0.00     0.000 C 
ENDROOT
BRANCH   1   2
ATOM      2  C   UNL     1       9.336  32.414  17.391  1.00  0.00     0.000 C 
BRANCH   2   3
ATOM      3  C   UNL     1       8.908  32.837  18.801  1.00  0.00     0.000 C 
BRANCH   3   4
ATOM      4  C   UNL     1       9.341  31.856  19.893  1.00  0.00     0.000 C 
BRANCH   4   5
ATOM      5  C   UNL     1      10.864  31.803  20.023  1.00  0.00     0.000 C 
BRANCH   5   6
ATOM      6  C   UNL     1      11.350  31.188  21.342  1.00  0.00     0.006 C 
BRANCH   6   7
ATOM      7  C   UNL     1      10.939  31.965  22.593  1.00  0.00     0.053 C 
BRANCH   7   8
ATOM      8  C   UNL     1      12.056  32.187  23.583  1.00  0.00     0.041 C 
ATOM      9  O   UNL     1      11.898  32.686  24.689  1.00  0.00    -0.550 OA
ATOM     10  O   UNL     1      13.266  31.805  23.106  1.00  0.00    -0.550 OA
ENDBRANCH   7   8
ENDBRANCH   6   7
ENDBRANCH   5   6
ENDBRANCH   4   5
ENDBRANCH   3   4
ENDBRANCH   2   3
ENDBRANCH   1   2
BRANCH   1  11
ATOM     11  C   UNL     1       8.861  29.902  17.210  1.00  0.00     0.000 C 
BRANCH  11  12
ATOM     12  C   UNL     1       7.606  29.057  17.440  1.00  0.00    -0.000 C 
BRANCH  12  13
ATOM     13  C   UNL     1       6.424  29.588  16.627  1.00  0.00    -0.000 C 
BRANCH  13  14
ATOM     14  C   UNL     1       5.206  29.948  17.484  1.00  0.00    -0.000 C 
BRANCH  14  15
ATOM     15  C   UNL     1       5.506  30.581  18.848  1.00  0.00    -0.000 C 
BRANCH  15  16
ATOM     16  C   UNL     1       5.381  32.107  18.854  1.00  0.00    -0.000 C 
BRANCH  16  17
ATOM     17  C   UNL     1       4.752  32.668  17.576  1.00  0.00    -0.003 C 
ATOM     18  C   UNL     1       5.610  33.715  16.883  1.00  0.00     0.004 C 
ENDBRANCH  16  17
ENDBRANCH  15  16
ENDBRANCH  14  15
ENDBRANCH  13  14
ENDBRANCH  12  13
ENDBRANCH  11  12
ENDBRANCH   1  11
TORSDOF 14
ENDMDL
MODEL 4
REMARK VINA RESULT:    -5.721      2.839      5.463
REMARK INTER + INTRA:         -12.403
REMARK INTER:                 -10.778
REMARK INTRA:                  -1.625
REMARK UNBOUND:                -2.000
REMARK SMILES CCCCCCCCCCCCCCCC(=O)[O-]
REMARK SMILES IDX 9 1 10 2 11 3 12 4 13 5 14 6 15 7 16 8 17 9 18 10 8 11 7 12
REMARK SMILES IDX 6 13 5 14 4 15 3 16 2 17 1 18
REMARK H PARENT
REMARK INDEX MAP 4 1 6 2 8 3 10 4 12 5 14 6 16 7 18 8 2 9 1 10 3 11 5 12 7 13
REMARK INDEX MAP 9 14 11 15 13 16 15 17 17 18
ROOT
ATOM      1  C   UNL     1       8.860  33.377  23.136  1.00  0.00     0.000 C 
ENDROOT
BRANCH   1   2
ATOM      2  C   UNL     1      10.131  32.605  22.769  1.00  0.00     0.000 C 
BRANCH   2   3
ATOM      3  C   UNL     1       9.980  31.550  21.667  1.00  0.00     0.000 C 
BRANCH   3   4
ATOM      4  C   UNL     1      11.156  31.514  20.688  1.00  0.00     0.000 C 
BRANCH   4   5
ATOM      5  C   UNL     1      10.711  31.873  19.269  1.00  0.00     0.000 C 
BRANCH   5   6
ATOM      6  C   UNL     1       9.276  31.441  18.944  1.00  0.00     0.006 C 
BRANCH   6   7
ATOM      7  C   UNL     1       9.016  31.170  17.463  1.00  0.00     0.053 C 
BRANCH   7   8
ATOM      8  C   UNL     1       8.452  29.802  17.169  1.00  0.00     0.041 C 
ATOM      9  O   UNL     1       8.887  28.765  17.655  1.00  0.00    -0.550 OA
ATOM     10  O   UNL     1       7.429  29.833  16.280  1.00  0.00    -0.550 OA
ENDBRANCH   7   8
ENDBRANCH   6   7
ENDBRANCH   5   6
ENDBRANCH   4   5
ENDBRANCH   3   4
ENDBRANCH   2   3
ENDBRANCH   1   2
BRANCH   1  11
ATOM     11  C   UNL     1       7.798  33.370  22.034  1.00  0.00     0.000 C 
BRANCH  11  12
ATOM     12  C   UNL     1       6.388  33.422  22.630  1.00  0.00    -0.000 C 
BRANCH  12  13
ATOM     13  C   UNL     1       5.450  32.446  21.917  1.00  0.00    -0.000 C 
BRANCH  13  14
ATOM     14  C   UNL     1       5.997  31.939  20.579  1.00  0.00    -0.000 C 
BRANCH  14  15
ATOM     15  C   UNL     1       5.133  30.904  19.849  1.00  0.00    -0.000 C 
BRANCH  15  16
ATOM     16  C   UNL     1       5.004  31.166  18.346  1.00  0.00    -0.000 C 
BRANCH  16  17
ATOM     17  C   UNL     1       5.094  32.650  17.980  1.00  0.00    -0.003 C 
ATOM     18  C   UNL     1       4.171  33.055  16.842  1.00  0.00     0.004 C 
ENDBRANCH  16  17
ENDBRANCH  15  16
ENDBRANCH  14  15
ENDBRANCH  13  14
ENDBRANCH  12  13
ENDBRANCH  11  12
ENDBRANCH   1  11
TORSDOF 14
ENDMDL
MODEL 5
REMARK VINA RESULT:    -5.693      1.148      3.575
REMARK INTER + INTRA:         -12.352
REMARK INTER:                 -10.950
REMARK INTRA:                  -1.403
REMARK UNBOUND:                -2.000
REMARK SMILES CCCCCCCCCCCCCCCC(=O)[O-]
REMARK SMILES IDX 9 1 10 2 11 3 12 4 13 5 14 6 15 7 16 8 17 9 18 10 8 11 7 12
REMARK SMILES IDX 6 13 5 14 4 15 3 16 2 17 1 18
REMARK H PARENT
REMARK INDEX MAP 4 1 6 2 8 3 10 4 12 5 14 6 16 7 18 8 2 9 1 10 3 11 5 12 7 13
REMARK INDEX MAP 9 14 11 15 13 16 15 17 17 18
ROOT
ATOM      1  C   UNL     1       8.317  30.757  16.416  1.00  0.00     0.000 C 
ENDROOT
BRANCH   1   2
ATOM      2  C   UNL     1       9.299  30.685  17.590  1.00  0.00     0.000 C 
BRANCH   2   3
ATOM      3  C   UNL     1       9.490  31.982  18.384  1.00  0.00     0.000 C 
BRANCH   3   4
ATOM      4  C   UNL     1      10.562  31.881  19.473  1.00  0.00     0.000 C 
BRANCH   4   5
ATOM      5  C   UNL     1       9.945  31.955  20.870  1.00  0.00     0.000 C 
BRANCH   5   6
ATOM      6  C   UNL     1      10.791  31.279  21.956  1.00  0.00     0.006 C 
BRANCH   6   7
ATOM      7  C   UNL     1      10.883  32.060  23.267  1.00  0.00     0.053 C 
BRANCH   7   8
ATOM      8  C   UNL     1      12.286  32.228  23.795  1.00  0.00     0.041 C 
ATOM      9  O   UNL     1      13.290  31.883  23.187  1.00  0.00    -0.550 OA
ATOM     10  O   UNL     1      12.319  32.774  25.036  1.00  0.00    -0.550 OA
ENDBRANCH   7   8
ENDBRANCH   6   7
ENDBRANCH   5   6
ENDBRANCH   4   5
ENDBRANCH   3   4
ENDBRANCH   2   3
ENDBRANCH   1   2
BRANCH   1  11
ATOM     11  C   UNL     1       7.133  29.796  16.546  1.00  0.00     0.000 C 
BRANCH  11  12
ATOM     12  C   UNL     1       7.065  29.196  17.953  1.00  0.00    -0.000 C 
BRANCH  12  13
ATOM     13  C   UNL     1       5.824  29.684  18.703  1.00  0.00    -0.000 C 
BRANCH  13  14
ATOM     14  C   UNL     1       5.166  30.910  18.063  1.00  0.00    -0.000 C 
BRANCH  14  15
ATOM     15  C   UNL     1       5.187  32.197  18.898  1.00  0.00    -0.000 C 
BRANCH  15  16
ATOM     16  C   UNL     1       6.083  32.107  20.137  1.00  0.00    -0.000 C 
BRANCH  16  17
ATOM     17  C   UNL     1       5.310  32.227  21.453  1.00  0.00    -0.003 C 
ATOM     18  C   UNL     1       6.034  33.041  22.513  1.00  0.00     0.004 C 
ENDBRANCH  16  17
ENDBRANCH  15  16
ENDBRANCH  14  15
ENDBRANCH  13  14
ENDBRANCH  12  13
ENDBRANCH  11  12
ENDBRANCH   1  11
TORSDOF 14
ENDMDL
MODEL 6
REMARK VINA RESULT:    -5.667      1.361      2.001
REMARK INTER + INTRA:         -12.304
REMARK INTER:                 -10.669
REMARK INTRA:                  -1.636
REMARK UNBOUND:                -2.000
REMARK SMILES CCCCCCCCCCCCCCCC(=O)[O-]
REMARK SMILES IDX 9 1 10 2 11 3 12 4 13 5 14 6 15 7 16 8 17 9 18 10 8 11 7 12
REMARK SMILES IDX 6 13 5 14 4 15 3 16 2 17 1 18
REMARK H PARENT
REMARK INDEX MAP 4 1 6 2 8 3 10 4 12 5 14 6 16 7 18 8 2 9 1 10 3 11 5 12 7 13
REMARK INDEX MAP 9 14 11 15 13 16 15 17 17 18
ROOT
ATOM      1  C   UNL     1       5.613  31.777  19.740  1.00  0.00     0.000 C 
ENDROOT
BRANCH   1   2
ATOM      2  C   UNL     1       6.798  32.069  20.665  1.00  0.00     0.000 C 
BRANCH   2   3
ATOM      3  C   UNL     1       8.099  32.493  19.974  1.00  0.00     0.000 C 
BRANCH   3   4
ATOM      4  C   UNL     1       9.218  31.453  20.083  1.00  0.00     0.000 C 
BRANCH   4   5
ATOM      5  C   UNL     1       9.616  31.214  21.540  1.00  0.00     0.000 C 
BRANCH   5   6
ATOM      6  C   UNL     1      10.756  32.118  22.025  1.00  0.00     0.006 C 
BRANCH   6   7
ATOM      7  C   UNL     1      10.881  32.219  23.545  1.00  0.00     0.053 C 
BRANCH   7   8
ATOM      8  C   UNL     1      12.302  32.255  24.052  1.00  0.00     0.041 C 
ATOM      9  O   UNL     1      13.274  31.932  23.382  1.00  0.00    -0.550 OA
ATOM     10  O   UNL     1      12.390  32.652  25.345  1.00  0.00    -0.550 OA
ENDBRANCH   7   8
ENDBRANCH   6   7
ENDBRANCH   5   6
ENDBRANCH   4   5
ENDBRANCH   3   4
ENDBRANCH   2   3
ENDBRANCH   1   2
BRANCH   1  11
ATOM     11  C   UNL     1       5.696  30.415  19.047  1.00  0.00     0.000 C 
BRANCH  11  12
ATOM     12  C   UNL     1       5.439  30.547  17.544  1.00  0.00    -0.000 C 
BRANCH  12  13
ATOM     13  C   UNL     1       6.453  29.736  16.735  1.00  0.00    -0.000 C 
BRANCH  13  14
ATOM     14  C   UNL     1       7.908  30.130  17.007  1.00  0.00    -0.000 C 
BRANCH  14  15
ATOM     15  C   UNL     1       8.525  31.137  16.029  1.00  0.00    -0.000 C 
BRANCH  15  16
ATOM     16  C   UNL     1       8.233  32.597  16.389  1.00  0.00    -0.000 C 
BRANCH  16  17
ATOM     17  C   UNL     1       9.492  33.401  16.724  1.00  0.00    -0.003 C 
ATOM     18  C   UNL     1      10.688  32.536  17.089  1.00  0.00     0.004 C 
ENDBRANCH  16  17
ENDBRANCH  15  16
ENDBRANCH  14  15
ENDBRANCH  13  14
ENDBRANCH  12  13
ENDBRANCH  11  12
ENDBRANCH   1  11
TORSDOF 14
ENDMDL
MODEL 7
REMARK VINA RESULT:    -5.663      1.560      3.652
REMARK INTER + INTRA:         -12.297
REMARK INTER:                 -11.154
REMARK INTRA:                  -1.143
REMARK UNBOUND:                -2.000
REMARK SMILES CCCCCCCCCCCCCCCC(=O)[O-]
REMARK SMILES IDX 9 1 10 2 11 3 12 4 13 5 14 6 15 7 16 8 17 9 18 10 8 11 7 12
REMARK SMILES IDX 6 13 5 14 4 15 3 16 2 17 1 18
REMARK H PARENT
REMARK INDEX MAP 4 1 6 2 8 3 10 4 12 5 14 6 16 7 18 8 2 9 1 10 3 11 5 12 7 13
REMARK INDEX MAP 9 14 11 15 13 16 15 17 17 18
ROOT
ATOM      1  C   UNL     1      10.199  32.961  16.748  1.00  0.00     0.000 C 
ENDROOT
BRANCH   1   2
ATOM      2  C   UNL     1      10.784  32.887  18.162  1.00  0.00     0.000 C 
BRANCH   2   3
ATOM      3  C   UNL     1      10.586  31.558  18.900  1.00  0.00     0.000 C 
BRANCH   3   4
ATOM      4  C   UNL     1       9.746  31.684  20.174  1.00  0.00     0.000 C 
BRANCH   4   5
ATOM      5  C   UNL     1      10.584  31.407  21.423  1.00  0.00     0.000 C 
BRANCH   5   6
ATOM      6  C   UNL     1      10.450  32.483  22.508  1.00  0.00     0.006 C 
BRANCH   6   7
ATOM      7  C   UNL     1      10.895  32.038  23.901  1.00  0.00     0.053 C 
BRANCH   7   8
ATOM      8  C   UNL     1      12.321  32.393  24.242  1.00  0.00     0.041 C 
ATOM      9  O   UNL     1      12.642  33.077  25.205  1.00  0.00    -0.550 OA
ATOM     10  O   UNL     1      13.214  31.902  23.349  1.00  0.00    -0.550 OA
ENDBRANCH   7   8
ENDBRANCH   6   7
ENDBRANCH   5   6
ENDBRANCH   4   5
ENDBRANCH   3   4
ENDBRANCH   2   3
ENDBRANCH   1   2
BRANCH   1  11
ATOM     11  C   UNL     1       8.706  32.631  16.683  1.00  0.00     0.000 C 
BRANCH  11  12
ATOM     12  C   UNL     1       8.453  31.405  15.801  1.00  0.00    -0.000 C 
BRANCH  12  13
ATOM     13  C   UNL     1       8.484  30.116  16.623  1.00  0.00    -0.000 C 
BRANCH  13  14
ATOM     14  C   UNL     1       7.120  29.427  16.733  1.00  0.00    -0.000 C 
BRANCH  14  15
ATOM     15  C   UNL     1       6.271  29.810  17.951  1.00  0.00    -0.000 C 
BRANCH  15  16
ATOM     16  C   UNL     1       5.168  30.824  17.634  1.00  0.00    -0.000 C 
BRANCH  16  17
ATOM     17  C   UNL     1       5.367  32.173  18.331  1.00  0.00    -0.003 C 
ATOM     18  C   UNL     1       5.443  32.070  19.846  1.00  0.00     0.004 C 
ENDBRANCH  16  17
ENDBRANCH  15  16
ENDBRANCH  14  15
ENDBRANCH  13  14
ENDBRANCH  12  13
ENDBRANCH  11  12
ENDBRANCH   1  11
TORSDOF 14
ENDMDL
MODEL 8
REMARK VINA RESULT:    -5.646      2.762      5.305
REMARK INTER + INTRA:         -12.267
REMARK INTER:                 -10.828
REMARK INTRA:                  -1.439
REMARK UNBOUND:                -2.000
REMARK SMILES CCCCCCCCCCCCCCCC(=O)[O-]
REMARK SMILES IDX 9 1 10 2 11 3 12 4 13 5 14 6 15 7 16 8 17 9 18 10 8 11 7 12
REMARK SMILES IDX 6 13 5 14 4 15 3 16 2 17 1 18
REMARK H PARENT
REMARK INDEX MAP 4 1 6 2 8 3 10 4 12 5 14 6 16 7 18 8 2 9 1 10 3 11 5 12 7 13
REMARK INDEX MAP 9 14 11 15 13 16 15 17 17 18
ROOT
ATOM      1  C   UNL     1       8.030  33.373  22.267  1.00  0.00     0.000 C 
ENDROOT
BRANCH   1   2
ATOM      2  C   UNL     1       6.560  33.329  22.698  1.00  0.00     0.000 C 
BRANCH   2   3
ATOM      3  C   UNL     1       5.616  32.545  21.779  1.00  0.00     0.000 C 
BRANCH   3   4
ATOM      4  C   UNL     1       6.326  31.880  20.596  1.00  0.00     0.000 C 
BRANCH   4   5
ATOM      5  C   UNL     1       5.392  31.742  19.393  1.00  0.00     0.000 C 
BRANCH   5   6
ATOM      6  C   UNL     1       5.591  30.442  18.603  1.00  0.00     0.006 C 
BRANCH   6   7
ATOM      7  C   UNL     1       6.274  30.622  17.247  1.00  0.00     0.053 C 
BRANCH   7   8
ATOM      8  C   UNL     1       7.532  29.809  17.071  1.00  0.00     0.041 C 
ATOM      9  O   UNL     1       8.265  29.888  16.094  1.00  0.00    -0.550 OA
ATOM     10  O   UNL     1       7.752  28.950  18.096  1.00  0.00    -0.550 OA
ENDBRANCH   7   8
ENDBRANCH   6   7
ENDBRANCH   5   6
ENDBRANCH   4   5
ENDBRANCH   3   4
ENDBRANCH   2   3
ENDBRANCH   1   2
BRANCH   1  11
ATOM     11  C   UNL     1       9.015  33.303  23.436  1.00  0.00     0.000 C 
BRANCH  11  12
ATOM     12  C   UNL     1      10.313  32.608  23.019  1.00  0.00    -0.000 C 
BRANCH  12  13
ATOM     13  C   UNL     1      10.045  31.493  22.007  1.00  0.00    -0.000 C 
BRANCH  13  14
ATOM     14  C   UNL     1      10.716  31.725  20.650  1.00  0.00    -0.000 C 
BRANCH  14  15
ATOM     15  C   UNL     1       9.834  31.498  19.416  1.00  0.00    -0.000 C 
BRANCH  15  16
ATOM     16  C   UNL     1      10.601  31.579  18.093  1.00  0.00    -0.000 C 
BRANCH  16  17
ATOM     17  C   UNL     1      10.554  32.968  17.449  1.00  0.00    -0.003 C 
ATOM     18  C   UNL     1       9.926  32.976  16.064  1.00  0.00     0.004 C 
ENDBRANCH  16  17
ENDBRANCH  15  16
ENDBRANCH  14  15
ENDBRANCH  13  14
ENDBRANCH  12  13
ENDBRANCH  11  12
ENDBRANCH   1  11
TORSDOF 14
ENDMDL
MODEL 9
REMARK VINA RESULT:    -5.629      2.776      5.894
REMARK INTER + INTRA:         -12.236
REMARK INTER:                 -10.478
REMARK INTRA:                  -1.758
REMARK UNBOUND:                -2.000
REMARK SMILES CCCCCCCCCCCCCCCC(=O)[O-]
REMARK SMILES IDX 9 1 10 2 11 3 12 4 13 5 14 6 15 7 16 8 17 9 18 10 8 11 7 12
REMARK SMILES IDX 6 13 5 14 4 15 3 16 2 17 1 18
REMARK H PARENT
REMARK INDEX MAP 4 1 6 2 8 3 10 4 12 5 14 6 16 7 18 8 2 9 1 10 3 11 5 12 7 13
REMARK INDEX MAP 9 14 11 15 13 16 15 17 17 18
ROOT
ATOM      1  C   UNL     1      10.143  32.639  22.692  1.00  0.00     0.000 C 
ENDROOT
BRANCH   1   2
ATOM      2  C   UNL     1       9.922  31.914  21.361  1.00  0.00     0.000 C 
BRANCH   2   3
ATOM      3  C   UNL     1      11.146  31.810  20.444  1.00  0.00     0.000 C 
BRANCH   3   4
ATOM      4  C   UNL     1      10.818  31.286  19.043  1.00  0.00     0.000 C 
BRANCH   4   5
ATOM      5  C   UNL     1      10.214  32.383  18.165  1.00  0.00     0.000 C 
BRANCH   5   6
ATOM      6  C   UNL     1       8.724  32.181  17.862  1.00  0.00     0.006 C 
BRANCH   6   7
ATOM      7  C   UNL     1       8.432  31.140  16.781  1.00  0.00     0.053 C 
BRANCH   7   8
ATOM      8  C   UNL     1       7.805  29.868  17.295  1.00  0.00     0.041 C 
ATOM      9  O   UNL     1       7.891  29.484  18.454  1.00  0.00    -0.550 OA
ATOM     10  O   UNL     1       7.161  29.170  16.327  1.00  0.00    -0.550 OA
ENDBRANCH   7   8
ENDBRANCH   6   7
ENDBRANCH   5   6
ENDBRANCH   4   5
ENDBRANCH   3   4
ENDBRANCH   2   3
ENDBRANCH   1   2
BRANCH   1  11
ATOM     11  C   UNL     1       8.895  33.351  23.219  1.00  0.00     0.000 C 
BRANCH  11  12
ATOM     12  C   UNL     1       7.850  33.518  22.113  1.00  0.00    -0.000 C 
BRANCH  12  13
ATOM     13  C   UNL     1       6.432  33.351  22.662  1.00  0.00    -0.000 C 
BRANCH  13  14
ATOM     14  C   UNL     1       5.531  32.487  21.774  1.00  0.00    -0.000 C 
BRANCH  14  15
ATOM     15  C   UNL     1       6.195  31.875  20.535  1.00  0.00    -0.000 C 
BRANCH  15  16
ATOM     16  C   UNL     1       5.202  31.224  19.568  1.00  0.00    -0.000 C 
BRANCH  16  17
ATOM     17  C   UNL     1       5.016  32.013  18.269  1.00  0.00    -0.003 C 
ATOM     18  C   UNL     1       4.294  31.234  17.181  1.00  0.00     0.004 C 
ENDBRANCH  16  17
ENDBRANCH  15  16
ENDBRANCH  14  15
ENDBRANCH  13  14
ENDBRANCH  12  13
ENDBRANCH  11  12
ENDBRANCH   1  11
TORSDOF 14
ENDMDL
MODEL 10
REMARK VINA RESULT:    -5.628      2.636      5.457
REMARK INTER + INTRA:         -12.234
REMARK INTER:                 -10.569
REMARK INTRA:                  -1.666
REMARK UNBOUND:                -2.000
REMARK SMILES CCCCCCCCCCCCCCCC(=O)[O-]
REMARK SMILES IDX 9 1 10 2 11 3 12 4 13 5 14 6 15 7 16 8 17 9 18 10 8 11 7 12
REMARK SMILES IDX 6 13 5 14 4 15 3 16 2 17 1 18
REMARK H PARENT
REMARK INDEX MAP 4 1 6 2 8 3 10 4 12 5 14 6 16 7 18 8 2 9 1 10 3 11 5 12 7 13
REMARK INDEX MAP 9 14 11 15 13 16 15 17 17 18
ROOT
ATOM      1  C   UNL     1       8.599  31.204  15.998  1.00  0.00     0.000 C 
ENDROOT
BRANCH   1   2
ATOM      2  C   UNL     1       8.060  30.049  16.847  1.00  0.00     0.000 C 
BRANCH   2   3
ATOM      3  C   UNL     1       6.650  29.561  16.495  1.00  0.00     0.000 C 
BRANCH   3   4
ATOM      4  C   UNL     1       5.594  29.938  17.537  1.00  0.00     0.000 C 
BRANCH   4   5
ATOM      5  C   UNL     1       4.891  31.246  17.170  1.00  0.00     0.000 C 
BRANCH   5   6
ATOM      6  C   UNL     1       4.876  32.278  18.305  1.00  0.00     0.006 C 
BRANCH   6   7
ATOM      7  C   UNL     1       5.976  32.089  19.349  1.00  0.00     0.053 C 
BRANCH   7   8
ATOM      8  C   UNL     1       5.471  31.850  20.750  1.00  0.00     0.041 C 
ATOM      9  O   UNL     1       5.662  32.618  21.685  1.00  0.00    -0.550 OA
ATOM     10  O   UNL     1       4.809  30.675  20.878  1.00  0.00    -0.550 OA
ENDBRANCH   7   8
ENDBRANCH   6   7
ENDBRANCH   5   6
ENDBRANCH   4   5
ENDBRANCH   3   4
ENDBRANCH   2   3
ENDBRANCH   1   2
BRANCH   1  11
ATOM     11  C   UNL     1       8.200  32.587  16.520  1.00  0.00     0.000 C 
BRANCH  11  12
ATOM     12  C   UNL     1       9.384  33.282  17.196  1.00  0.00    -0.000 C 
BRANCH  12  13
ATOM     13  C   UNL     1      10.579  32.336  17.328  1.00  0.00    -0.000 C 
BRANCH  13  14
ATOM     14  C   UNL     1      10.879  31.928  18.774  1.00  0.00    -0.000 C 
BRANCH  14  15
ATOM     15  C   UNL     1       9.668  31.829  19.709  1.00  0.00    -0.000 C 
BRANCH  15  16
ATOM     16  C   UNL     1      10.045  31.570  21.171  1.00  0.00    -0.000 C 
BRANCH  16  17
ATOM     17  C   UNL     1      11.549  31.381  21.385  1.00  0.00    -0.003 C 
ATOM     18  C   UNL     1      12.038  31.864  22.741  1.00  0.00     0.004 C 
ENDBRANCH  16  17
ENDBRANCH  15  16
ENDBRANCH  14  15
ENDBRANCH  13  14
ENDBRANCH  12  13
ENDBRANCH  11  12
ENDBRANCH   1  11
TORSDOF 14
ENDMDL
MODEL 11
REMARK VINA RESULT:    -5.505      2.942      6.121
REMARK INTER + INTRA:         -12.010
REMARK INTER:                 -10.442
REMARK INTRA:                  -1.568
REMARK UNBOUND:                -2.000
REMARK SMILES CCCCCCCCCCCCCCCC(=O)[O-]
REMARK SMILES IDX 9 1 10 2 11 3 12 4 13 5 14 6 15 7 16 8 17 9 18 10 8 11 7 12
REMARK SMILES IDX 6 13 5 14 4 15 3 16 2 17 1 18
REMARK H PARENT
REMARK INDEX MAP 4 1 6 2 8 3 10 4 12 5 14 6 16 7 18 8 2 9 1 10 3 11 5 12 7 13
REMARK INDEX MAP 9 14 11 15 13 16 15 17 17 18
ROOT
ATOM      1  C   UNL     1       9.810  31.793  18.717  1.00  0.00     0.000 C 
ENDROOT
BRANCH   1   2
ATOM      2  C   UNL     1       9.519  31.651  17.220  1.00  0.00     0.000 C 
BRANCH   2   3
ATOM      3  C   UNL     1       8.636  32.743  16.604  1.00  0.00     0.000 C 
BRANCH   3   4
ATOM      4  C   UNL     1       7.672  33.388  17.603  1.00  0.00     0.000 C 
BRANCH   4   5
ATOM      5  C   UNL     1       6.242  33.415  17.061  1.00  0.00     0.000 C 
BRANCH   5   6
ATOM      6  C   UNL     1       5.253  32.583  17.886  1.00  0.00     0.006 C 
BRANCH   6   7
ATOM      7  C   UNL     1       5.905  31.659  18.915  1.00  0.00     0.053 C 
BRANCH   7   8
ATOM      8  C   UNL     1       6.042  30.225  18.465  1.00  0.00     0.041 C 
ATOM      9  O   UNL     1       5.250  29.665  17.719  1.00  0.00    -0.550 OA
ATOM     10  O   UNL     1       7.122  29.606  19.002  1.00  0.00    -0.550 OA
ENDBRANCH   7   8
ENDBRANCH   6   7
ENDBRANCH   5   6
ENDBRANCH   4   5
ENDBRANCH   3   4
ENDBRANCH   2   3
ENDBRANCH   1   2
BRANCH   1  11
ATOM     11  C   UNL     1      11.302  31.758  19.058  1.00  0.00     0.000 C 
BRANCH  11  12
ATOM     12  C   UNL     1      11.518  31.512  20.554  1.00  0.00    -0.000 C 
BRANCH  12  13
ATOM     13  C   UNL     1      10.194  31.554  21.319  1.00  0.00    -0.000 C 
BRANCH  13  14
ATOM     14  C   UNL     1      10.281  32.304  22.651  1.00  0.00    -0.000 C 
BRANCH  14  15
ATOM     15  C   UNL     1       9.134  33.275  22.953  1.00  0.00    -0.000 C 
BRANCH  15  16
ATOM     16  C   UNL     1       7.910  33.073  22.056  1.00  0.00    -0.000 C 
BRANCH  16  17
ATOM     17  C   UNL     1       6.600  33.529  22.706  1.00  0.00    -0.003 C 
ATOM     18  C   UNL     1       5.418  32.626  22.394  1.00  0.00     0.004 C 
ENDBRANCH  16  17
ENDBRANCH  15  16
ENDBRANCH  14  15
ENDBRANCH  13  14
ENDBRANCH  12  13
ENDBRANCH  11  12
ENDBRANCH   1  11
TORSDOF 14
ENDMDL
MODEL 12
REMARK VINA RESULT:    -5.480      2.569      4.323
REMARK INTER + INTRA:         -11.965
REMARK INTER:                 -10.596
REMARK INTRA:                  -1.369
REMARK UNBOUND:                -2.000
REMARK SMILES CCCCCCCCCCCCCCCC(=O)[O-]
REMARK SMILES IDX 9 1 10 2 11 3 12 4 13 5 14 6 15 7 16 8 17 9 18 10 8 11 7 12
REMARK SMILES IDX 6 13 5 14 4 15 3 16 2 17 1 18
REMARK H PARENT
REMARK INDEX MAP 4 1 6 2 8 3 10 4 12 5 14 6 16 7 18 8 2 9 1 10 3 11 5 12 7 13
REMARK INDEX MAP 9 14 11 15 13 16 15 17 17 18
ROOT
ATOM      1  C   UNL     1      11.263  31.468  19.917  1.00  0.00     0.000 C 
ENDROOT
BRANCH   1   2
ATOM      2  C   UNL     1       9.992  31.828  20.692  1.00  0.00     0.000 C 
BRANCH   2   3
ATOM      3  C   UNL     1      10.181  32.131  22.183  1.00  0.00     0.000 C 
BRANCH   3   4
ATOM      4  C   UNL     1      11.611  31.898  22.679  1.00  0.00     0.000 C 
BRANCH   4   5
ATOM      5  C   UNL     1      11.748  32.239  24.164  1.00  0.00     0.000 C 
BRANCH   5   6
ATOM      6  C   UNL     1      10.478  32.841  24.779  1.00  0.00     0.006 C 
BRANCH   6   7
ATOM      7  C   UNL     1      10.510  32.967  26.302  1.00  0.00     0.053 C 
BRANCH   7   8
ATOM      8  C   UNL     1      11.839  33.409  26.863  1.00  0.00     0.041 C 
ATOM      9  O   UNL     1      12.549  32.705  27.569  1.00  0.00    -0.550 OA
ATOM     10  O   UNL     1      12.153  34.685  26.531  1.00  0.00    -0.550 OA
ENDBRANCH   7   8
ENDBRANCH   6   7
ENDBRANCH   5   6
ENDBRANCH   4   5
ENDBRANCH   3   4
ENDBRANCH   2   3
ENDBRANCH   1   2
BRANCH   1  11
ATOM     11  C   UNL     1      11.083  31.492  18.397  1.00  0.00     0.000 C 
BRANCH  11  12
ATOM     12  C   UNL     1      10.567  32.855  17.927  1.00  0.00    -0.000 C 
BRANCH  12  13
ATOM     13  C   UNL     1      10.274  32.847  16.425  1.00  0.00    -0.000 C 
BRANCH  13  14
ATOM     14  C   UNL     1       8.780  32.798  16.094  1.00  0.00    -0.000 C 
BRANCH  14  15
ATOM     15  C   UNL     1       7.825  32.815  17.294  1.00  0.00    -0.000 C 
BRANCH  15  16
ATOM     16  C   UNL     1       7.052  31.506  17.478  1.00  0.00    -0.000 C 
BRANCH  16  17
ATOM     17  C   UNL     1       7.544  30.379  16.565  1.00  0.00    -0.003 C 
ATOM     18  C   UNL     1       8.338  29.307  17.295  1.00  0.00     0.004 C 
ENDBRANCH  16  17
ENDBRANCH  15  16
ENDBRANCH  14  15
ENDBRANCH  13  14
ENDBRANCH  12  13
ENDBRANCH  11  12
ENDBRANCH   1  11
TORSDOF 14
ENDMDL
MODEL 13
REMARK VINA RESULT:    -5.456      3.737      7.806
REMARK INTER + INTRA:         -11.921
REMARK INTER:                 -11.051
REMARK INTRA:                  -0.870
REMARK UNBOUND:                -2.000
REMARK SMILES CCCCCCCCCCCCCCCC(=O)[O-]
REMARK SMILES IDX 9 1 10 2 11 3 12 4 13 5 14 6 15 7 16 8 17 9 18 10 8 11 7 12
REMARK SMILES IDX 6 13 5 14 4 15 3 16 2 17 1 18
REMARK H PARENT
REMARK INDEX MAP 4 1 6 2 8 3 10 4 12 5 14 6 16 7 18 8 2 9 1 10 3 11 5 12 7 13
REMARK INDEX MAP 9 14 11 15 13 16 15 17 17 18
ROOT
ATOM      1  C   UNL     1       9.929  31.491  20.896  1.00  0.00     0.000 C 
ENDROOT
BRANCH   1   2
ATOM      2  C   UNL     1       8.594  31.887  20.257  1.00  0.00     0.000 C 
BRANCH   2   3
ATOM      3  C   UNL     1       8.650  32.266  18.772  1.00  0.00     0.000 C 
BRANCH   3   4
ATOM      4  C   UNL     1       9.582  31.376  17.947  1.00  0.00     0.000 C 
BRANCH   4   5
ATOM      5  C   UNL     1       8.883  30.087  17.513  1.00  0.00     0.000 C 
BRANCH   5   6
ATOM      6  C   UNL     1       7.792  30.302  16.457  1.00  0.00     0.006 C 
BRANCH   6   7
ATOM      7  C   UNL     1       6.464  29.612  16.768  1.00  0.00     0.053 C 
BRANCH   7   8
ATOM      8  C   UNL     1       5.642  30.294  17.834  1.00  0.00     0.041 C 
ATOM      9  O   UNL     1       5.095  31.379  17.685  1.00  0.00    -0.550 OA
ATOM     10  O   UNL     1       5.599  29.594  18.994  1.00  0.00    -0.550 OA
ENDBRANCH   7   8
ENDBRANCH   6   7
ENDBRANCH   5   6
ENDBRANCH   4   5
ENDBRANCH   3   4
ENDBRANCH   2   3
ENDBRANCH   1   2
BRANCH   1  11
ATOM     11  C   UNL     1      10.188  32.168  22.244  1.00  0.00     0.000 C 
BRANCH  11  12
ATOM     12  C   UNL     1      11.594  31.850  22.758  1.00  0.00    -0.000 C 
BRANCH  12  13
ATOM     13  C   UNL     1      11.753  32.254  24.224  1.00  0.00    -0.000 C 
BRANCH  13  14
ATOM     14  C   UNL     1      10.460  32.778  24.857  1.00  0.00    -0.000 C 
BRANCH  14  15
ATOM     15  C   UNL     1      10.536  33.128  26.349  1.00  0.00    -0.000 C 
BRANCH  15  16
ATOM     16  C   UNL     1      10.975  34.571  26.616  1.00  0.00    -0.000 C 
BRANCH  16  17
ATOM     17  C   UNL     1      12.492  34.727  26.753  1.00  0.00    -0.003 C 
ATOM     18  C   UNL     1      12.908  35.747  27.800  1.00  0.00     0.004 C 
ENDBRANCH  16  17
ENDBRANCH  15  16
ENDBRANCH  14  15
ENDBRANCH  13  14
ENDBRANCH  12  13
ENDBRANCH  11  12
ENDBRANCH   1  11
TORSDOF 14
ENDMDL
MODEL 14
REMARK VINA RESULT:    -5.416      1.883      3.042
REMARK INTER + INTRA:         -11.848
REMARK INTER:                 -10.320
REMARK INTRA:                  -1.527
REMARK UNBOUND:                -2.000
REMARK SMILES CCCCCCCCCCCCCCCC(=O)[O-]
REMARK SMILES IDX 9 1 10 2 11 3 12 4 13 5 14 6 15 7 16 8 17 9 18 10 8 11 7 12
REMARK SMILES IDX 6 13 5 14 4 15 3 16 2 17 1 18
REMARK H PARENT
REMARK INDEX MAP 4 1 6 2 8 3 10 4 12 5 14 6 16 7 18 8 2 9 1 10 3 11 5 12 7 13
REMARK INDEX MAP 9 14 11 15 13 16 15 17 17 18
ROOT
ATOM      1  C   UNL     1       7.496  32.346  20.280  1.00  0.00     0.000 C 
ENDROOT
BRANCH   1   2
ATOM      2  C   UNL     1       8.621  31.311  20.181  1.00  0.00     0.000 C 
BRANCH   2   3
ATOM      3  C   UNL     1      10.027  31.815  20.526  1.00  0.00     0.000 C 
BRANCH   3   4
ATOM      4  C   UNL     1      10.505  31.391  21.918  1.00  0.00     0.000 C 
BRANCH   4   5
ATOM      5  C   UNL     1      10.169  32.450  22.969  1.00  0.00     0.000 C 
BRANCH   5   6
ATOM      6  C   UNL     1      11.048  32.375  24.224  1.00  0.00     0.006 C 
BRANCH   6   7
ATOM      7  C   UNL     1      10.346  32.794  25.515  1.00  0.00     0.053 C 
BRANCH   7   8
ATOM      8  C   UNL     1      11.107  33.804  26.339  1.00  0.00     0.041 C 
ATOM      9  O   UNL     1      12.086  33.530  27.021  1.00  0.00    -0.550 OA
ATOM     10  O   UNL     1      10.573  35.048  26.272  1.00  0.00    -0.550 OA
ENDBRANCH   7   8
ENDBRANCH   6   7
ENDBRANCH   5   6
ENDBRANCH   4   5
ENDBRANCH   3   4
ENDBRANCH   2   3
ENDBRANCH   1   2
BRANCH   1  11
ATOM     11  C   UNL     1       6.095  31.745  20.149  1.00  0.00     0.000 C 
BRANCH  11  12
ATOM     12  C   UNL     1       5.450  32.139  18.818  1.00  0.00    -0.000 C 
BRANCH  12  13
ATOM     13  C   UNL     1       4.968  30.907  18.050  1.00  0.00    -0.000 C 
BRANCH  13  14
ATOM     14  C   UNL     1       5.987  29.764  18.026  1.00  0.00    -0.000 C 
BRANCH  14  15
ATOM     15  C   UNL     1       6.782  29.599  16.725  1.00  0.00    -0.000 C 
BRANCH  15  16
ATOM     16  C   UNL     1       8.250  30.016  16.848  1.00  0.00    -0.000 C 
BRANCH  16  17
ATOM     17  C   UNL     1       8.622  31.200  15.951  1.00  0.00    -0.003 C 
ATOM     18  C   UNL     1       8.450  32.552  16.624  1.00  0.00     0.004 C 
ENDBRANCH  16  17
ENDBRANCH  15  16
ENDBRANCH  14  15
ENDBRANCH  13  14
ENDBRANCH  12  13
ENDBRANCH  11  12
ENDBRANCH   1  11
TORSDOF 14
ENDMDL
MODEL 15
REMARK VINA RESULT:    -5.405      3.035      6.503
REMARK INTER + INTRA:         -11.828
REMARK INTER:                 -10.611
REMARK INTRA:                  -1.217
REMARK UNBOUND:                -2.000
REMARK SMILES CCCCCCCCCCCCCCCC(=O)[O-]
REMARK SMILES IDX 9 1 10 2 11 3 12 4 13 5 14 6 15 7 16 8 17 9 18 10 8 11 7 12
REMARK SMILES IDX 6 13 5 14 4 15 3 16 2 17 1 18
REMARK H PARENT
REMARK INDEX MAP 4 1 6 2 8 3 10 4 12 5 14 6 16 7 18 8 2 9 1 10 3 11 5 12 7 13
REMARK INDEX MAP 9 14 11 15 13 16 15 17 17 18
ROOT
ATOM      1  C   UNL     1      11.438  31.418  21.326  1.00  0.00     0.000 C 
ENDROOT
BRANCH   1   2
ATOM      2  C   UNL     1      11.689  31.459  19.816  1.00  0.00     0.000 C 
BRANCH   2   3
ATOM      3  C   UNL     1      10.471  31.780  18.942  1.00  0.00     0.000 C 
BRANCH   3   4
ATOM      4  C   UNL     1      10.746  32.844  17.876  1.00  0.00     0.000 C 
BRANCH   4   5
ATOM      5  C   UNL     1       9.452  33.313  17.210  1.00  0.00     0.000 C 
BRANCH   5   6
ATOM      6  C   UNL     1       8.794  32.250  16.321  1.00  0.00     0.006 C 
BRANCH   6   7
ATOM      7  C   UNL     1       7.584  31.560  16.949  1.00  0.00     0.053 C 
BRANCH   7   8
ATOM      8  C   UNL     1       7.553  30.063  16.759  1.00  0.00     0.041 C 
ATOM      9  O   UNL     1       8.545  29.348  16.810  1.00  0.00    -0.550 OA
ATOM     10  O   UNL     1       6.311  29.592  16.491  1.00  0.00    -0.550 OA
ENDBRANCH   7   8
ENDBRANCH   6   7
ENDBRANCH   5   6
ENDBRANCH   4   5
ENDBRANCH   3   4
ENDBRANCH   2   3
ENDBRANCH   1   2
BRANCH   1  11
ATOM     11  C   UNL     1      10.064  31.956  21.734  1.00  0.00     0.000 C 
BRANCH  11  12
ATOM     12  C   UNL     1      10.111  32.581  23.130  1.00  0.00    -0.000 C 
BRANCH  12  13
ATOM     13  C   UNL     1       8.899  33.482  23.374  1.00  0.00    -0.000 C 
BRANCH  13  14
ATOM     14  C   UNL     1       7.833  33.383  22.279  1.00  0.00    -0.000 C 
BRANCH  14  15
ATOM     15  C   UNL     1       6.376  33.370  22.758  1.00  0.00    -0.000 C 
BRANCH  15  16
ATOM     16  C   UNL     1       5.451  32.525  21.878  1.00  0.00    -0.000 C 
BRANCH  16  17
ATOM     17  C   UNL     1       6.153  31.939  20.649  1.00  0.00    -0.003 C 
ATOM     18  C   UNL     1       5.194  31.463  19.569  1.00  0.00     0.004 C 
ENDBRANCH  16  17
ENDBRANCH  15  16
ENDBRANCH  14  15
ENDBRANCH  13  14
ENDBRANCH  12  13
ENDBRANCH  11  12
ENDBRANCH   1  11
TORSDOF 14
ENDMDL
MODEL 16
REMARK VINA RESULT:    -5.399      2.716      5.685
REMARK INTER + INTRA:         -11.818
REMARK INTER:                 -10.397
REMARK INTRA:                  -1.420
REMARK UNBOUND:                -2.000
REMARK SMILES CCCCCCCCCCCCCCCC(=O)[O-]
REMARK SMILES IDX 9 1 10 2 11 3 12 4 13 5 14 6 15 7 16 8 17 9 18 10 8 11 7 12
REMARK SMILES IDX 6 13 5 14 4 15 3 16 2 17 1 18
REMARK H PARENT
REMARK INDEX MAP 4 1 6 2 8 3 10 4 12 5 14 6 16 7 18 8 2 9 1 10 3 11 5 12 7 13
REMARK INDEX MAP 9 14 11 15 13 16 15 17 17 18
ROOT
ATOM      1  C   UNL     1       6.176  31.995  20.425  1.00  0.00     0.000 C 
ENDROOT
BRANCH   1   2
ATOM      2  C   UNL     1       5.137  31.888  19.305  1.00  0.00     0.000 C 
BRANCH   2   3
ATOM      3  C   UNL     1       5.647  31.338  17.968  1.00  0.00     0.000 C 
BRANCH   3   4
ATOM      4  C   UNL     1       6.119  29.883  18.045  1.00  0.00     0.000 C 
BRANCH   4   5
ATOM      5  C   UNL     1       6.990  29.516  16.842  1.00  0.00     0.000 C 
BRANCH   5   6
ATOM      6  C   UNL     1       8.377  30.170  16.862  1.00  0.00     0.006 C 
BRANCH   6   7
ATOM      7  C   UNL     1       8.599  31.220  15.774  1.00  0.00     0.053 C 
BRANCH   7   8
ATOM      8  C   UNL     1       9.180  32.520  16.272  1.00  0.00     0.041 C 
ATOM      9  O   UNL     1      10.335  32.873  16.072  1.00  0.00    -0.550 OA
ATOM     10  O   UNL     1       8.297  33.248  16.999  1.00  0.00    -0.550 OA
ENDBRANCH   7   8
ENDBRANCH   6   7
ENDBRANCH   5   6
ENDBRANCH   4   5
ENDBRANCH   3   4
ENDBRANCH   2   3
ENDBRANCH   1   2
BRANCH   1  11
ATOM     11  C   UNL     1       5.572  32.304  21.797  1.00  0.00     0.000 C 
BRANCH  11  12
ATOM     12  C   UNL     1       6.424  33.324  22.556  1.00  0.00    -0.000 C 
BRANCH  12  13
ATOM     13  C   UNL     1       7.871  33.314  22.060  1.00  0.00    -0.000 C 
BRANCH  13  14
ATOM     14  C   UNL     1       8.903  33.471  23.180  1.00  0.00    -0.000 C 
BRANCH  14  15
ATOM     15  C   UNL     1      10.206  32.679  23.010  1.00  0.00    -0.000 C 
BRANCH  15  16
ATOM     16  C   UNL     1      10.064  31.458  22.097  1.00  0.00    -0.000 C 
BRANCH  16  17
ATOM     17  C   UNL     1      11.057  31.456  20.930  1.00  0.00    -0.003 C 
ATOM     18  C   UNL     1      10.421  31.781  19.588  1.00  0.00     0.004 C 
ENDBRANCH  16  17
ENDBRANCH  15  16
ENDBRANCH  14  15
ENDBRANCH  13  14
ENDBRANCH  12  13
ENDBRANCH  11  12
ENDBRANCH   1  11
TORSDOF 14
ENDMDL
MODEL 17
REMARK VINA RESULT:    -5.359      2.266      4.174
REMARK INTER + INTRA:         -11.745
REMARK INTER:                 -10.721
REMARK INTRA:                  -1.024
REMARK UNBOUND:                -2.000
REMARK SMILES CCCCCCCCCCCCCCCC(=O)[O-]
REMARK SMILES IDX 9 1 10 2 11 3 12 4 13 5 14 6 15 7 16 8 17 9 18 10 8 11 7 12
REMARK SMILES IDX 6 13 5 14 4 15 3 16 2 17 1 18
REMARK H PARENT
REMARK INDEX MAP 4 1 6 2 8 3 10 4 12 5 14 6 16 7 18 8 2 9 1 10 3 11 5 12 7 13
REMARK INDEX MAP 9 14 11 15 13 16 15 17 17 18
ROOT
ATOM      1  C   UNL     1      10.381  31.856  19.741  1.00  0.00     0.000 C 
ENDROOT
BRANCH   1   2
ATOM      2  C   UNL     1      10.389  31.583  21.248  1.00  0.00     0.000 C 
BRANCH   2   3
ATOM      3  C   UNL     1      11.769  31.401  21.888  1.00  0.00     0.000 C 
BRANCH   3   4
ATOM      4  C   UNL     1      11.949  32.187  23.190  1.00  0.00     0.000 C 
BRANCH   4   5
ATOM      5  C   UNL     1      10.696  32.113  24.063  1.00  0.00     0.000 C 
BRANCH   5   6
ATOM      6  C   UNL     1      10.735  33.048  25.279  1.00  0.00     0.006 C 
BRANCH   6   7
ATOM      7  C   UNL     1      12.051  33.025  26.055  1.00  0.00     0.053 C 
BRANCH   7   8
ATOM      8  C   UNL     1      11.891  32.923  27.551  1.00  0.00     0.041 C 
ATOM      9  O   UNL     1      10.811  32.812  28.116  1.00  0.00    -0.550 OA
ATOM     10  O   UNL     1      13.071  33.000  28.214  1.00  0.00    -0.550 OA
ENDBRANCH   7   8
ENDBRANCH   6   7
ENDBRANCH   5   6
ENDBRANCH   4   5
ENDBRANCH   3   4
ENDBRANCH   2   3
ENDBRANCH   1   2
BRANCH   1  11
ATOM     11  C   UNL     1       9.089  31.423  19.045  1.00  0.00     0.000 C 
BRANCH  11  12
ATOM     12  C   UNL     1       9.342  31.096  17.571  1.00  0.00    -0.000 C 
BRANCH  12  13
ATOM     13  C   UNL     1       8.124  30.421  16.937  1.00  0.00    -0.000 C 
BRANCH  13  14
ATOM     14  C   UNL     1       7.418  29.432  17.869  1.00  0.00    -0.000 C 
BRANCH  14  15
ATOM     15  C   UNL     1       5.946  29.732  18.177  1.00  0.00    -0.000 C 
BRANCH  15  16
ATOM     16  C   UNL     1       5.441  31.031  17.543  1.00  0.00    -0.000 C 
BRANCH  16  17
ATOM     17  C   UNL     1       5.182  32.143  18.563  1.00  0.00    -0.003 C 
ATOM     18  C   UNL     1       5.482  31.735  19.997  1.00  0.00     0.004 C 
ENDBRANCH  16  17
ENDBRANCH  15  16
ENDBRANCH  14  15
ENDBRANCH  13  14
ENDBRANCH  12  13
ENDBRANCH  11  12
ENDBRANCH   1  11
TORSDOF 14
ENDMDL
MODEL 18
REMARK VINA RESULT:    -5.345      1.427      2.040
REMARK INTER + INTRA:         -11.718
REMARK INTER:                 -10.377
REMARK INTRA:                  -1.342
REMARK UNBOUND:                -2.000
REMARK SMILES CCCCCCCCCCCCCCCC(=O)[O-]
REMARK SMILES IDX 9 1 10 2 11 3 12 4 13 5 14 6 15 7 16 8 17 9 18 10 8 11 7 12
REMARK SMILES IDX 6 13 5 14 4 15 3 16 2 17 1 18
REMARK H PARENT
REMARK INDEX MAP 4 1 6 2 8 3 10 4 12 5 14 6 16 7 18 8 2 9 1 10 3 11 5 12 7 13
REMARK INDEX MAP 9 14 11 15 13 16 15 17 17 18
ROOT
ATOM      1  C   UNL     1       5.214  31.620  20.252  1.00  0.00     0.000 C 
ENDROOT
BRANCH   1   2
ATOM      2  C   UNL     1       6.494  32.195  20.866  1.00  0.00     0.000 C 
BRANCH   2   3
ATOM      3  C   UNL     1       6.322  32.940  22.195  1.00  0.00     0.000 C 
BRANCH   3   4
ATOM      4  C   UNL     1       7.572  33.711  22.630  1.00  0.00     0.000 C 
BRANCH   4   5
ATOM      5  C   UNL     1       8.850  32.984  22.208  1.00  0.00     0.000 C 
BRANCH   5   6
ATOM      6  C   UNL     1       9.895  32.873  23.325  1.00  0.00     0.006 C 
BRANCH   6   7
ATOM      7  C   UNL     1      11.079  31.964  22.997  1.00  0.00     0.053 C 
BRANCH   7   8
ATOM      8  C   UNL     1      12.304  32.207  23.843  1.00  0.00     0.041 C 
ATOM      9  O   UNL     1      12.271  32.671  24.976  1.00  0.00    -0.550 OA
ATOM     10  O   UNL     1      13.457  31.889  23.205  1.00  0.00    -0.550 OA
ENDBRANCH   7   8
ENDBRANCH   6   7
ENDBRANCH   5   6
ENDBRANCH   4   5
ENDBRANCH   3   4
ENDBRANCH   2   3
ENDBRANCH   1   2
BRANCH   1  11
ATOM     11  C   UNL     1       5.400  31.092  18.828  1.00  0.00     0.000 C 
BRANCH  11  12
ATOM     12  C   UNL     1       4.947  32.126  17.794  1.00  0.00    -0.000 C 
BRANCH  12  13
ATOM     13  C   UNL     1       6.122  32.979  17.313  1.00  0.00    -0.000 C 
BRANCH  13  14
ATOM     14  C   UNL     1       7.432  32.196  17.181  1.00  0.00    -0.000 C 
BRANCH  14  15
ATOM     15  C   UNL     1       8.610  32.956  16.558  1.00  0.00    -0.000 C 
BRANCH  15  16
ATOM     16  C   UNL     1       9.813  33.094  17.496  1.00  0.00    -0.000 C 
BRANCH  16  17
ATOM     17  C   UNL     1       9.771  32.124  18.681  1.00  0.00    -0.003 C 
ATOM     18  C   UNL     1      11.147  31.743  19.205  1.00  0.00     0.004 C 
ENDBRANCH  16  17
ENDBRANCH  15  16
ENDBRANCH  14  15
ENDBRANCH  13  14
ENDBRANCH  12  13
ENDBRANCH  11  12
ENDBRANCH   1  11
TORSDOF 14
ENDMDL
MODEL 19
REMARK VINA RESULT:    -5.336      3.960      6.271
REMARK INTER + INTRA:         -11.703
REMARK INTER:                  -9.738
REMARK INTRA:                  -1.965
REMARK UNBOUND:                -2.000
REMARK SMILES CCCCCCCCCCCCCCCC(=O)[O-]
REMARK SMILES IDX 9 1 10 2 11 3 12 4 13 5 14 6 15 7 16 8 17 9 18 10 8 11 7 12
REMARK SMILES IDX 6 13 5 14 4 15 3 16 2 17 1 18
REMARK H PARENT
REMARK INDEX MAP 4 1 6 2 8 3 10 4 12 5 14 6 16 7 18 8 2 9 1 10 3 11 5 12 7 13
REMARK INDEX MAP 9 14 11 15 13 16 15 17 17 18
ROOT
ATOM      1  C   UNL     1       8.547  31.282  15.738  1.00  0.00     0.000 C 
ENDROOT
BRANCH   1   2
ATOM      2  C   UNL     1       8.478  30.391  16.982  1.00  0.00     0.000 C 
BRANCH   2   3
ATOM      3  C   UNL     1       7.248  29.481  17.086  1.00  0.00     0.000 C 
BRANCH   3   4
ATOM      4  C   UNL     1       5.919  30.236  16.997  1.00  0.00     0.000 C 
BRANCH   4   5
ATOM      5  C   UNL     1       5.454  30.708  18.375  1.00  0.00     0.000 C 
BRANCH   5   6
ATOM      6  C   UNL     1       5.210  32.220  18.460  1.00  0.00     0.006 C 
BRANCH   6   7
ATOM      7  C   UNL     1       5.678  33.007  17.236  1.00  0.00     0.053 C 
BRANCH   7   8
ATOM      8  C   UNL     1       4.611  33.866  16.603  1.00  0.00     0.041 C 
ATOM      9  O   UNL     1       4.845  34.871  15.944  1.00  0.00    -0.550 OA
ATOM     10  O   UNL     1       3.356  33.427  16.868  1.00  0.00    -0.550 OA
ENDBRANCH   7   8
ENDBRANCH   6   7
ENDBRANCH   5   6
ENDBRANCH   4   5
ENDBRANCH   3   4
ENDBRANCH   2   3
ENDBRANCH   1   2
BRANCH   1  11
ATOM     11  C   UNL     1       9.388  32.546  15.935  1.00  0.00     0.000 C 
BRANCH  11  12
ATOM     12  C   UNL     1       9.388  32.983  17.402  1.00  0.00    -0.000 C 
BRANCH  12  13
ATOM     13  C   UNL     1      10.790  32.888  18.007  1.00  0.00    -0.000 C 
BRANCH  13  14
ATOM     14  C   UNL     1      10.944  31.746  19.016  1.00  0.00    -0.000 C 
BRANCH  14  15
ATOM     15  C   UNL     1      10.316  31.979  20.395  1.00  0.00    -0.000 C 
BRANCH  15  16
ATOM     16  C   UNL     1       8.884  31.446  20.513  1.00  0.00    -0.000 C 
BRANCH  16  17
ATOM     17  C   UNL     1       7.868  32.524  20.903  1.00  0.00    -0.003 C 
ATOM     18  C   UNL     1       8.230  33.270  22.177  1.00  0.00     0.004 C 
ENDBRANCH  16  17
ENDBRANCH  15  16
ENDBRANCH  14  15
ENDBRANCH  13  14
ENDBRANCH  12  13
ENDBRANCH  11  12
ENDBRANCH   1  11
TORSDOF 14
ENDMDL
MODEL 20
REMARK VINA RESULT:    -5.284      1.712      3.752
REMARK INTER + INTRA:         -11.609
REMARK INTER:                 -10.521
REMARK INTRA:                  -1.088
REMARK UNBOUND:                -2.000
REMARK SMILES CCCCCCCCCCCCCCCC(=O)[O-]
REMARK SMILES IDX 9 1 10 2 11 3 12 4 13 5 14 6 15 7 16 8 17 9 18 10 8 11 7 12
REMARK SMILES IDX 6 13 5 14 4 15 3 16 2 17 1 18
REMARK H PARENT
REMARK INDEX MAP 4 1 6 2 8 3 10 4 12 5 14 6 16 7 18 8 2 9 1 10 3 11 5 12 7 13
REMARK INDEX MAP 9 14 11 15 13 16 15 17 17 18
ROOT
ATOM      1  C   UNL     1      10.524  32.365  17.572  1.00  0.00     0.000 C 
ENDROOT
BRANCH   1   2
ATOM      2  C   UNL     1      11.097  31.767  18.860  1.00  0.00     0.000 C 
BRANCH   2   3
ATOM      3  C   UNL     1      10.165  31.781  20.077  1.00  0.00     0.000 C 
BRANCH   3   4
ATOM      4  C   UNL     1      10.884  31.516  21.402  1.00  0.00     0.000 C 
BRANCH   4   5
ATOM      5  C   UNL     1      10.144  32.159  22.576  1.00  0.00     0.000 C 
BRANCH   5   6
ATOM      6  C   UNL     1      10.942  32.154  23.886  1.00  0.00     0.006 C 
BRANCH   6   7
ATOM      7  C   UNL     1      10.267  32.892  25.042  1.00  0.00     0.053 C 
BRANCH   7   8
ATOM      8  C   UNL     1      11.225  33.485  26.046  1.00  0.00     0.041 C 
ATOM      9  O   UNL     1      12.267  32.947  26.397  1.00  0.00    -0.550 OA
ATOM     10  O   UNL     1      10.794  34.667  26.549  1.00  0.00    -0.550 OA
ENDBRANCH   7   8
ENDBRANCH   6   7
ENDBRANCH   5   6
ENDBRANCH   4   5
ENDBRANCH   3   4
ENDBRANCH   2   3
ENDBRANCH   1   2
BRANCH   1  11
ATOM     11  C   UNL     1       9.154  33.023  17.756  1.00  0.00     0.000 C 
BRANCH  11  12
ATOM     12  C   UNL     1       8.174  32.563  16.674  1.00  0.00    -0.000 C 
BRANCH  12  13
ATOM     13  C   UNL     1       8.640  31.260  16.022  1.00  0.00    -0.000 C 
BRANCH  13  14
ATOM     14  C   UNL     1       8.011  30.008  16.640  1.00  0.00    -0.000 C 
BRANCH  14  15
ATOM     15  C   UNL     1       6.567  30.156  17.135  1.00  0.00    -0.000 C 
BRANCH  15  16
ATOM     16  C   UNL     1       6.455  30.318  18.653  1.00  0.00    -0.000 C 
BRANCH  16  17
ATOM     17  C   UNL     1       5.411  31.356  19.076  1.00  0.00    -0.003 C 
ATOM     18  C   UNL     1       5.590  31.855  20.501  1.00  0.00     0.004 C 
ENDBRANCH  16  17
ENDBRANCH  15  16
ENDBRANCH  14  15
ENDBRANCH  13  14
ENDBRANCH  12  13
ENDBRANCH  11  12
ENDBRANCH   1  11
TORSDOF 14
ENDMDL
