MODEL 1
REMARK VINA RESULT:    -6.254      0.000      0.000
REMARK INTER + INTRA:         -14.617
REMARK INTER:                 -12.104
REMARK INTRA:                  -2.514
REMARK UNBOUND:                -2.514
REMARK SMILES CCCCCCCCCCCCCCCCCC(=O)[O-]
REMARK SMILES IDX 10 1 11 2 12 3 13 4 14 5 15 6 16 7 17 8 18 9 19 10 20 11
REMARK SMILES IDX 9 12 8 13 7 14 6 15 5 16 4 17 3 18 2 19 1 20
REMARK H PARENT
REMARK INDEX MAP 4 1 6 2 8 3 10 4 12 5 14 6 16 7 18 8 20 9 2 10 1 11 3 12 5 13
REMARK INDEX MAP 7 14 9 15 11 16 13 17 15 18 17 19 19 20
ROOT
ATOM      1  C   UNL     1       5.348  31.296  19.693  1.00  0.00     0.000 C 
ENDROOT
BRANCH   1   2
ATOM      2  C   UNL     1       6.337  31.959  20.660  1.00  0.00     0.000 C 
BRANCH   2   3
ATOM      3  C   UNL     1       5.647  32.589  21.873  1.00  0.00     0.000 C 
BRANCH   3   4
ATOM      4  C   UNL     1       6.588  33.428  22.744  1.00  0.00     0.000 C 
BRANCH   4   5
ATOM      5  C   UNL     1       8.031  33.556  22.244  1.00  0.00     0.000 C 
BRANCH   5   6
ATOM      6  C   UNL     1       9.124  33.214  23.262  1.00  0.00     0.000 C 
BRANCH   6   7
ATOM      7  C   UNL     1      10.256  32.360  22.684  1.00  0.00     0.006 C 
BRANCH   7   8
ATOM      8  C   UNL     1      10.028  32.018  21.213  1.00  0.00     0.053 C 
BRANCH   8   9
ATOM      9  C   UNL     1      11.241  31.409  20.565  1.00  0.00     0.041 C 
ATOM     10  O   UNL     1      11.528  31.464  19.382  1.00  0.00    -0.550 OA
ATOM     11  O   UNL     1      12.048  30.780  21.439  1.00  0.00    -0.550 OA
ENDBRANCH   8   9
ENDBRANCH   7   8
ENDBRANCH   6   7
ENDBRANCH   5   6
ENDBRANCH   4   5
ENDBRANCH   3   4
ENDBRANCH   2   3
ENDBRANCH   1   2
BRANCH   1  12
ATOM     12  C   UNL     1       4.902  32.174  18.516  1.00  0.00     0.000 C 
BRANCH  12  13
ATOM     13  C   UNL     1       5.026  31.505  17.149  1.00  0.00    -0.000 C 
BRANCH  13  14
ATOM     14  C   UNL     1       5.348  30.009  17.229  1.00  0.00    -0.000 C 
BRANCH  14  15
ATOM     15  C   UNL     1       6.671  29.578  16.588  1.00  0.00    -0.000 C 
BRANCH  15  16
ATOM     16  C   UNL     1       7.863  29.454  17.543  1.00  0.00    -0.000 C 
BRANCH  16  17
ATOM     17  C   UNL     1       8.767  30.689  17.550  1.00  0.00    -0.000 C 
BRANCH  17  18
ATOM     18  C   UNL     1       8.684  31.443  16.221  1.00  0.00    -0.000 C 
BRANCH  18  19
ATOM     19  C   UNL     1       8.565  32.960  16.392  1.00  0.00    -0.003 C 
ATOM     20  C   UNL     1       8.341  33.393  17.833  1.00  0.00     0.004 C 
ENDBRANCH  18  19
ENDBRANCH  17  18
ENDBRANCH  16  17
ENDBRANCH  15  16
ENDBRANCH  14  15
ENDBRANCH  13  14
ENDBRANCH  12  13
ENDBRANCH   1  12
TORSDOF 16
ENDMDL
MODEL 2
REMARK VINA RESULT:    -6.083      1.496      4.424
REMARK INTER + INTRA:         -14.287
REMARK INTER:                 -12.421
REMARK INTRA:                  -1.866
REMARK UNBOUND:                -2.514
REMARK SMILES CCCCCCCCCCCCCCCCCC(=O)[O-]
REMARK SMILES IDX 10 1 11 2 12 3 13 4 14 5 15 6 16 7 17 8 18 9 19 10 20 11
REMARK SMILES IDX 9 12 8 13 7 14 6 15 5 16 4 17 3 18 2 19 1 20
REMARK H PARENT
REMARK INDEX MAP 4 1 6 2 8 3 10 4 12 5 14 6 16 7 18 8 20 9 2 10 1 11 3 12 5 13
REMARK INDEX MAP 7 14 9 15 11 16 13 17 15 18 17 19 19 20
ROOT
ATOM      1  C   UNL     1       8.110  31.089  15.986  1.00  0.00     0.000 C 
ENDROOT
BRANCH   1   2
ATOM      2  C   UNL     1       8.645  32.491  16.307  1.00  0.00     0.000 C 
BRANCH   2   3
ATOM      3  C   UNL     1      10.158  32.507  16.542  1.00  0.00     0.000 C 
BRANCH   3   4
ATOM      4  C   UNL     1      10.551  32.930  17.962  1.00  0.00     0.000 C 
BRANCH   4   5
ATOM      5  C   UNL     1      10.986  31.802  18.902  1.00  0.00     0.000 C 
BRANCH   5   6
ATOM      6  C   UNL     1      10.312  31.781  20.278  1.00  0.00     0.000 C 
BRANCH   6   7
ATOM      7  C   UNL     1      11.260  31.407  21.421  1.00  0.00     0.006 C 
BRANCH   7   8
ATOM      8  C   UNL     1      10.997  32.229  22.681  1.00  0.00     0.053 C 
BRANCH   8   9
ATOM      9  C   UNL     1      12.167  32.229  23.627  1.00  0.00     0.041 C 
ATOM     10  O   UNL     1      12.130  32.503  24.815  1.00  0.00    -0.550 OA
ATOM     11  O   UNL     1      13.321  31.863  23.042  1.00  0.00    -0.550 OA
ENDBRANCH   8   9
ENDBRANCH   7   8
ENDBRANCH   6   7
ENDBRANCH   5   6
ENDBRANCH   4   5
ENDBRANCH   3   4
ENDBRANCH   2   3
ENDBRANCH   1   2
BRANCH   1  12
ATOM     12  C   UNL     1       8.583  29.981  16.934  1.00  0.00     0.000 C 
BRANCH  12  13
ATOM     13  C   UNL     1       7.455  29.214  17.621  1.00  0.00    -0.000 C 
BRANCH  13  14
ATOM     14  C   UNL     1       6.070  29.822  17.379  1.00  0.00    -0.000 C 
BRANCH  14  15
ATOM     15  C   UNL     1       5.436  30.531  18.581  1.00  0.00    -0.000 C 
BRANCH  15  16
ATOM     16  C   UNL     1       5.962  31.939  18.875  1.00  0.00    -0.000 C 
BRANCH  16  17
ATOM     17  C   UNL     1       6.592  32.074  20.264  1.00  0.00    -0.000 C 
BRANCH  17  18
ATOM     18  C   UNL     1       5.519  32.204  21.348  1.00  0.00    -0.000 C 
BRANCH  18  19
ATOM     19  C   UNL     1       5.979  33.017  22.561  1.00  0.00    -0.003 C 
ATOM     20  C   UNL     1       7.418  33.499  22.459  1.00  0.00     0.004 C 
ENDBRANCH  18  19
ENDBRANCH  17  18
ENDBRANCH  16  17
ENDBRANCH  15  16
ENDBRANCH  14  15
ENDBRANCH  13  14
ENDBRANCH  12  13
ENDBRANCH   1  12
TORSDOF 16
ENDMDL
MODEL 3
REMARK VINA RESULT:    -5.858      0.933      1.505
REMARK INTER + INTRA:         -13.850
REMARK INTER:                 -11.571
REMARK INTRA:                  -2.279
REMARK UNBOUND:                -2.514
REMARK SMILES CCCCCCCCCCCCCCCCCC(=O)[O-]
REMARK SMILES IDX 10 1 11 2 12 3 13 4 14 5 15 6 16 7 17 8 18 9 19 10 20 11
REMARK SMILES IDX 9 12 8 13 7 14 6 15 5 16 4 17 3 18 2 19 1 20
REMARK H PARENT
REMARK INDEX MAP 4 1 6 2 8 3 10 4 12 5 14 6 16 7 18 8 20 9 2 10 1 11 3 12 5 13
REMARK INDEX MAP 7 14 9 15 11 16 13 17 15 18 17 19 19 20
ROOT
ATOM      1  C   UNL     1       5.109  32.188  19.194  1.00  0.00     0.000 C 
ENDROOT
BRANCH   1   2
ATOM      2  C   UNL     1       6.045  31.777  20.338  1.00  0.00     0.000 C 
BRANCH   2   3
ATOM      3  C   UNL     1       5.502  32.169  21.716  1.00  0.00     0.000 C 
BRANCH   3   4
ATOM      4  C   UNL     1       6.393  33.168  22.461  1.00  0.00     0.000 C 
BRANCH   4   5
ATOM      5  C   UNL     1       7.848  33.253  21.989  1.00  0.00     0.000 C 
BRANCH   5   6
ATOM      6  C   UNL     1       8.873  33.660  23.053  1.00  0.00     0.000 C 
BRANCH   6   7
ATOM      7  C   UNL     1       9.907  32.572  23.357  1.00  0.00     0.006 C 
BRANCH   7   8
ATOM      8  C   UNL     1      10.366  31.842  22.097  1.00  0.00     0.053 C 
BRANCH   8   9
ATOM      9  C   UNL     1      11.836  31.526  22.112  1.00  0.00     0.041 C 
ATOM     10  O   UNL     1      12.645  31.910  22.939  1.00  0.00    -0.550 OA
ATOM     11  O   UNL     1      12.216  30.722  21.103  1.00  0.00    -0.550 OA
ENDBRANCH   8   9
ENDBRANCH   7   8
ENDBRANCH   6   7
ENDBRANCH   5   6
ENDBRANCH   4   5
ENDBRANCH   3   4
ENDBRANCH   2   3
ENDBRANCH   1   2
BRANCH   1  12
ATOM     12  C   UNL     1       5.453  31.587  17.825  1.00  0.00     0.000 C 
BRANCH  12  13
ATOM     13  C   UNL     1       5.773  30.094  17.855  1.00  0.00    -0.000 C 
BRANCH  13  14
ATOM     14  C   UNL     1       6.666  29.638  16.698  1.00  0.00    -0.000 C 
BRANCH  14  15
ATOM     15  C   UNL     1       8.166  29.564  17.003  1.00  0.00    -0.000 C 
BRANCH  15  16
ATOM     16  C   UNL     1       8.608  30.201  18.325  1.00  0.00    -0.000 C 
BRANCH  16  17
ATOM     17  C   UNL     1       9.761  31.194  18.166  1.00  0.00    -0.000 C 
BRANCH  17  18
ATOM     18  C   UNL     1       9.310  32.621  18.488  1.00  0.00    -0.000 C 
BRANCH  18  19
ATOM     19  C   UNL     1       8.639  33.326  17.307  1.00  0.00    -0.003 C 
ATOM     20  C   UNL     1       9.252  32.973  15.960  1.00  0.00     0.004 C 
ENDBRANCH  18  19
ENDBRANCH  17  18
ENDBRANCH  16  17
ENDBRANCH  15  16
ENDBRANCH  14  15
ENDBRANCH  13  14
ENDBRANCH  12  13
ENDBRANCH   1  12
TORSDOF 16
ENDMDL
MODEL 4
REMARK VINA RESULT:    -5.707      1.820      4.814
REMARK INTER + INTRA:         -13.559
REMARK INTER:                 -11.823
REMARK INTRA:                  -1.735
REMARK UNBOUND:                -2.514
REMARK SMILES CCCCCCCCCCCCCCCCCC(=O)[O-]
REMARK SMILES IDX 10 1 11 2 12 3 13 4 14 5 15 6 16 7 17 8 18 9 19 10 20 11
REMARK SMILES IDX 9 12 8 13 7 14 6 15 5 16 4 17 3 18 2 19 1 20
REMARK H PARENT
REMARK INDEX MAP 4 1 6 2 8 3 10 4 12 5 14 6 16 7 18 8 20 9 2 10 1 11 3 12 5 13
REMARK INDEX MAP 7 14 9 15 11 16 13 17 15 18 17 19 19 20
ROOT
ATOM      1  C   UNL     1       8.949  33.326  23.068  1.00  0.00     0.000 C 
ENDROOT
BRANCH   1   2
ATOM      2  C   UNL     1      10.061  32.314  22.762  1.00  0.00     0.000 C 
BRANCH   2   3
ATOM      3  C   UNL     1      10.005  31.791  21.323  1.00  0.00     0.000 C 
BRANCH   3   4
ATOM      4  C   UNL     1      11.383  31.457  20.741  1.00  0.00     0.000 C 
BRANCH   4   5
ATOM      5  C   UNL     1      11.499  31.517  19.214  1.00  0.00     0.000 C 
BRANCH   5   6
ATOM      6  C   UNL     1      10.688  32.619  18.525  1.00  0.00     0.000 C 
BRANCH   6   7
ATOM      7  C   UNL     1      10.249  32.260  17.103  1.00  0.00     0.006 C 
BRANCH   7   8
ATOM      8  C   UNL     1       8.758  31.939  17.023  1.00  0.00     0.053 C 
BRANCH   8   9
ATOM      9  C   UNL     1       8.460  30.493  17.308  1.00  0.00     0.041 C 
ATOM     10  O   UNL     1       8.373  29.981  18.411  1.00  0.00    -0.550 OA
ATOM     11  O   UNL     1       8.260  29.764  16.195  1.00  0.00    -0.550 OA
ENDBRANCH   8   9
ENDBRANCH   7   8
ENDBRANCH   6   7
ENDBRANCH   5   6
ENDBRANCH   4   5
ENDBRANCH   3   4
ENDBRANCH   2   3
ENDBRANCH   1   2
BRANCH   1  12
ATOM     12  C   UNL     1       7.845  33.419  22.008  1.00  0.00     0.000 C 
BRANCH  12  13
ATOM     13  C   UNL     1       6.426  33.338  22.567  1.00  0.00    -0.000 C 
BRANCH  13  14
ATOM     14  C   UNL     1       5.542  32.318  21.843  1.00  0.00    -0.000 C 
BRANCH  14  15
ATOM     15  C   UNL     1       5.977  31.951  20.420  1.00  0.00    -0.000 C 
BRANCH  15  16
ATOM     16  C   UNL     1       5.062  30.973  19.676  1.00  0.00    -0.000 C 
BRANCH  16  17
ATOM     17  C   UNL     1       4.999  31.227  18.168  1.00  0.00    -0.000 C 
BRANCH  17  18
ATOM     18  C   UNL     1       5.172  32.714  17.850  1.00  0.00    -0.000 C 
BRANCH  18  19
ATOM     19  C   UNL     1       4.089  33.264  16.919  1.00  0.00    -0.003 C 
ATOM     20  C   UNL     1       4.564  34.420  16.051  1.00  0.00     0.004 C 
ENDBRANCH  18  19
ENDBRANCH  17  18
ENDBRANCH  16  17
ENDBRANCH  15  16
ENDBRANCH  14  15
ENDBRANCH  13  14
ENDBRANCH  12  13
ENDBRANCH   1  12
TORSDOF 16
ENDMDL
MODEL 5
REMARK VINA RESULT:    -5.595      1.986      6.437
REMARK INTER + INTRA:         -13.342
REMARK INTER:                 -12.106
REMARK INTRA:                  -1.236
REMARK UNBOUND:                -2.514
REMARK SMILES CCCCCCCCCCCCCCCCCC(=O)[O-]
REMARK SMILES IDX 10 1 11 2 12 3 13 4 14 5 15 6 16 7 17 8 18 9 19 10 20 11
REMARK SMILES IDX 9 12 8 13 7 14 6 15 5 16 4 17 3 18 2 19 1 20
REMARK H PARENT
REMARK INDEX MAP 4 1 6 2 8 3 10 4 12 5 14 6 16 7 18 8 20 9 2 10 1 11 3 12 5 13
REMARK INDEX MAP 7 14 9 15 11 16 13 17 15 18 17 19 19 20
ROOT
ATOM      1  C   UNL     1       5.485  32.542  21.927  1.00  0.00     0.000 C 
ENDROOT
BRANCH   1   2
ATOM      2  C   UNL     1       6.133  31.902  20.692  1.00  0.00     0.000 C 
BRANCH   2   3
ATOM      3  C   UNL     1       5.250  31.998  19.444  1.00  0.00     0.000 C 
BRANCH   3   4
ATOM      4  C   UNL     1       5.242  30.717  18.602  1.00  0.00     0.000 C 
BRANCH   4   5
ATOM      5  C   UNL     1       6.602  30.046  18.387  1.00  0.00     0.000 C 
BRANCH   5   6
ATOM      6  C   UNL     1       7.041  29.877  16.929  1.00  0.00     0.000 C 
BRANCH   6   7
ATOM      7  C   UNL     1       8.322  30.639  16.580  1.00  0.00     0.006 C 
BRANCH   7   8
ATOM      8  C   UNL     1       8.591  31.790  17.547  1.00  0.00     0.053 C 
BRANCH   8   9
ATOM      9  C   UNL     1       9.823  31.571  18.381  1.00  0.00     0.041 C 
ATOM     10  O   UNL     1       9.891  30.908  19.402  1.00  0.00    -0.550 OA
ATOM     11  O   UNL     1      10.915  32.176  17.881  1.00  0.00    -0.550 OA
ENDBRANCH   8   9
ENDBRANCH   7   8
ENDBRANCH   6   7
ENDBRANCH   5   6
ENDBRANCH   4   5
ENDBRANCH   3   4
ENDBRANCH   2   3
ENDBRANCH   1   2
BRANCH   1  12
ATOM     12  C   UNL     1       6.415  33.434  22.759  1.00  0.00     0.000 C 
BRANCH  12  13
ATOM     13  C   UNL     1       7.806  33.629  22.159  1.00  0.00    -0.000 C 
BRANCH  13  14
ATOM     14  C   UNL     1       8.937  33.476  23.180  1.00  0.00    -0.000 C 
BRANCH  14  15
ATOM     15  C   UNL     1      10.033  32.469  22.814  1.00  0.00    -0.000 C 
BRANCH  15  16
ATOM     16  C   UNL     1      11.093  32.219  23.892  1.00  0.00    -0.000 C 
BRANCH  16  17
ATOM     17  C   UNL     1      10.716  32.794  25.260  1.00  0.00    -0.000 C 
BRANCH  17  18
ATOM     18  C   UNL     1      11.963  33.168  26.066  1.00  0.00    -0.000 C 
BRANCH  18  19
ATOM     19  C   UNL     1      11.942  34.609  26.581  1.00  0.00    -0.003 C 
ATOM     20  C   UNL     1      10.541  35.190  26.703  1.00  0.00     0.004 C 
ENDBRANCH  18  19
ENDBRANCH  17  18
ENDBRANCH  16  17
ENDBRANCH  15  16
ENDBRANCH  14  15
ENDBRANCH  13  14
ENDBRANCH  12  13
ENDBRANCH   1  12
TORSDOF 16
ENDMDL
MODEL 6
REMARK VINA RESULT:    -5.588      1.800      3.370
REMARK INTER + INTRA:         -13.329
REMARK INTER:                 -11.412
REMARK INTRA:                  -1.917
REMARK UNBOUND:                -2.514
REMARK SMILES CCCCCCCCCCCCCCCCCC(=O)[O-]
REMARK SMILES IDX 10 1 11 2 12 3 13 4 14 5 15 6 16 7 17 8 18 9 19 10 20 11
REMARK SMILES IDX 9 12 8 13 7 14 6 15 5 16 4 17 3 18 2 19 1 20
REMARK H PARENT
REMARK INDEX MAP 4 1 6 2 8 3 10 4 12 5 14 6 16 7 18 8 20 9 2 10 1 11 3 12 5 13
REMARK INDEX MAP 7 14 9 15 11 16 13 17 15 18 17 19 19 20
ROOT
ATOM      1  C   UNL     1      10.090  32.218  18.284  1.00  0.00     0.000 C 
ENDROOT
BRANCH   1   2
ATOM      2  C   UNL     1       9.953  31.644  19.700  1.00  0.00     0.000 C 
BRANCH   2   3
ATOM      3  C   UNL     1       8.493  31.484  20.135  1.00  0.00     0.000 C 
BRANCH   3   4
ATOM      4  C   UNL     1       8.073  32.464  21.235  1.00  0.00     0.000 C 
BRANCH   4   5
ATOM      5  C   UNL     1       9.211  33.192  21.957  1.00  0.00     0.000 C 
BRANCH   5   6
ATOM      6  C   UNL     1       8.960  33.534  23.429  1.00  0.00     0.000 C 
BRANCH   6   7
ATOM      7  C   UNL     1       9.926  32.840  24.394  1.00  0.00     0.006 C 
BRANCH   7   8
ATOM      8  C   UNL     1      10.907  31.923  23.668  1.00  0.00     0.053 C 
BRANCH   8   9
ATOM      9  C   UNL     1      12.343  32.260  23.963  1.00  0.00     0.041 C 
ATOM     10  O   UNL     1      13.308  31.950  23.286  1.00  0.00    -0.550 OA
ATOM     11  O   UNL     1      12.496  32.992  25.082  1.00  0.00    -0.550 OA
ENDBRANCH   8   9
ENDBRANCH   7   8
ENDBRANCH   6   7
ENDBRANCH   5   6
ENDBRANCH   4   5
ENDBRANCH   3   4
ENDBRANCH   2   3
ENDBRANCH   1   2
BRANCH   1  12
ATOM     12  C   UNL     1       8.765  32.537  17.581  1.00  0.00     0.000 C 
BRANCH  12  13
ATOM     13  C   UNL     1       8.577  31.830  16.240  1.00  0.00    -0.000 C 
BRANCH  13  14
ATOM     14  C   UNL     1       8.400  30.314  16.369  1.00  0.00    -0.000 C 
BRANCH  14  15
ATOM     15  C   UNL     1       7.366  29.850  17.400  1.00  0.00    -0.000 C 
BRANCH  15  16
ATOM     16  C   UNL     1       5.898  30.018  16.991  1.00  0.00    -0.000 C 
BRANCH  16  17
ATOM     17  C   UNL     1       5.051  30.730  18.049  1.00  0.00    -0.000 C 
BRANCH  17  18
ATOM     18  C   UNL     1       5.278  32.244  18.012  1.00  0.00    -0.000 C 
BRANCH  18  19
ATOM     19  C   UNL     1       4.317  32.977  17.072  1.00  0.00    -0.003 C 
ATOM     20  C   UNL     1       4.917  34.228  16.447  1.00  0.00     0.004 C 
ENDBRANCH  18  19
ENDBRANCH  17  18
ENDBRANCH  16  17
ENDBRANCH  15  16
ENDBRANCH  14  15
ENDBRANCH  13  14
ENDBRANCH  12  13
ENDBRANCH   1  12
TORSDOF 16
ENDMDL
MODEL 7
REMARK VINA RESULT:    -5.534      3.165      4.858
REMARK INTER + INTRA:         -13.225
REMARK INTER:                 -11.545
REMARK INTRA:                  -1.679
REMARK UNBOUND:                -2.514
REMARK SMILES CCCCCCCCCCCCCCCCCC(=O)[O-]
REMARK SMILES IDX 10 1 11 2 12 3 13 4 14 5 15 6 16 7 17 8 18 9 19 10 20 11
REMARK SMILES IDX 9 12 8 13 7 14 6 15 5 16 4 17 3 18 2 19 1 20
REMARK H PARENT
REMARK INDEX MAP 4 1 6 2 8 3 10 4 12 5 14 6 16 7 18 8 20 9 2 10 1 11 3 12 5 13
REMARK INDEX MAP 7 14 9 15 11 16 13 17 15 18 17 19 19 20
ROOT
ATOM      1  C   UNL     1       8.669  32.476  19.749  1.00  0.00     0.000 C 
ENDROOT
BRANCH   1   2
ATOM      2  C   UNL     1       9.544  31.572  20.626  1.00  0.00     0.000 C 
BRANCH   2   3
ATOM      3  C   UNL     1       9.917  32.224  21.961  1.00  0.00     0.000 C 
BRANCH   3   4
ATOM      4  C   UNL     1      11.322  31.854  22.449  1.00  0.00     0.000 C 
BRANCH   4   5
ATOM      5  C   UNL     1      11.644  32.214  23.903  1.00  0.00     0.000 C 
BRANCH   5   6
ATOM      6  C   UNL     1      10.448  32.609  24.775  1.00  0.00     0.000 C 
BRANCH   6   7
ATOM      7  C   UNL     1      10.828  33.458  25.991  1.00  0.00     0.006 C 
BRANCH   7   8
ATOM      8  C   UNL     1      12.225  33.127  26.513  1.00  0.00     0.053 C 
BRANCH   8   9
ATOM      9  C   UNL     1      12.283  33.064  28.014  1.00  0.00     0.041 C 
ATOM     10  O   UNL     1      13.294  32.981  28.691  1.00  0.00    -0.550 OA
ATOM     11  O   UNL     1      11.072  33.132  28.595  1.00  0.00    -0.550 OA
ENDBRANCH   8   9
ENDBRANCH   7   8
ENDBRANCH   6   7
ENDBRANCH   5   6
ENDBRANCH   4   5
ENDBRANCH   3   4
ENDBRANCH   2   3
ENDBRANCH   1   2
BRANCH   1  12
ATOM     12  C   UNL     1       9.008  32.456  18.253  1.00  0.00     0.000 C 
BRANCH  12  13
ATOM     13  C   UNL     1       9.416  31.085  17.718  1.00  0.00    -0.000 C 
BRANCH  13  14
ATOM     14  C   UNL     1       8.335  30.417  16.864  1.00  0.00    -0.000 C 
BRANCH  14  15
ATOM     15  C   UNL     1       7.588  29.253  17.525  1.00  0.00    -0.000 C 
BRANCH  15  16
ATOM     16  C   UNL     1       6.213  29.592  18.109  1.00  0.00    -0.000 C 
BRANCH  16  17
ATOM     17  C   UNL     1       5.619  30.888  17.553  1.00  0.00    -0.000 C 
BRANCH  17  18
ATOM     18  C   UNL     1       5.288  31.872  18.678  1.00  0.00    -0.000 C 
BRANCH  18  19
ATOM     19  C   UNL     1       5.158  31.204  20.049  1.00  0.00    -0.003 C 
ATOM     20  C   UNL     1       5.428  32.147  21.212  1.00  0.00     0.004 C 
ENDBRANCH  18  19
ENDBRANCH  17  18
ENDBRANCH  16  17
ENDBRANCH  15  16
ENDBRANCH  14  15
ENDBRANCH  13  14
ENDBRANCH  12  13
ENDBRANCH   1  12
TORSDOF 16
ENDMDL
MODEL 8
REMARK VINA RESULT:    -5.517      4.769      9.648
REMARK INTER + INTRA:         -13.192
REMARK INTER:                 -11.898
REMARK INTRA:                  -1.294
REMARK UNBOUND:                -2.514
REMARK SMILES CCCCCCCCCCCCCCCCCC(=O)[O-]
REMARK SMILES IDX 10 1 11 2 12 3 13 4 14 5 15 6 16 7 17 8 18 9 19 10 20 11
REMARK SMILES IDX 9 12 8 13 7 14 6 15 5 16 4 17 3 18 2 19 1 20
REMARK H PARENT
REMARK INDEX MAP 4 1 6 2 8 3 10 4 12 5 14 6 16 7 18 8 20 9 2 10 1 11 3 12 5 13
REMARK INDEX MAP 7 14 9 15 11 16 13 17 15 18 17 19 19 20
ROOT
ATOM      1  C   UNL     1      10.510  32.581  24.791  1.00  0.00     0.000 C 
ENDROOT
BRANCH   1   2
ATOM      2  C   UNL     1      11.771  32.187  24.011  1.00  0.00     0.000 C 
BRANCH   2   3
ATOM      3  C   UNL     1      11.483  31.883  22.537  1.00  0.00     0.000 C 
BRANCH   3   4
ATOM      4  C   UNL     1      10.021  32.113  22.141  1.00  0.00     0.000 C 
BRANCH   4   5
ATOM      5  C   UNL     1       9.665  31.808  20.682  1.00  0.00     0.000 C 
BRANCH   5   6
ATOM      6  C   UNL     1       8.169  31.780  20.351  1.00  0.00     0.000 C 
BRANCH   6   7
ATOM      7  C   UNL     1       7.873  31.737  18.849  1.00  0.00     0.006 C 
BRANCH   7   8
ATOM      8  C   UNL     1       8.913  30.927  18.079  1.00  0.00     0.053 C 
BRANCH   8   9
ATOM      9  C   UNL     1       8.322  29.728  17.391  1.00  0.00     0.041 C 
ATOM     10  O   UNL     1       7.890  28.727  17.936  1.00  0.00    -0.550 OA
ATOM     11  O   UNL     1       8.278  29.853  16.052  1.00  0.00    -0.550 OA
ENDBRANCH   8   9
ENDBRANCH   7   8
ENDBRANCH   6   7
ENDBRANCH   5   6
ENDBRANCH   4   5
ENDBRANCH   3   4
ENDBRANCH   2   3
ENDBRANCH   1   2
BRANCH   1  12
ATOM     12  C   UNL     1      10.762  33.104  26.211  1.00  0.00     0.000 C 
BRANCH  12  13
ATOM     13  C   UNL     1      12.127  33.760  26.408  1.00  0.00    -0.000 C 
BRANCH  13  14
ATOM     14  C   UNL     1      12.058  35.107  27.134  1.00  0.00    -0.000 C 
BRANCH  14  15
ATOM     15  C   UNL     1      10.689  35.482  27.712  1.00  0.00    -0.000 C 
BRANCH  15  16
ATOM     16  C   UNL     1      10.612  35.559  29.240  1.00  0.00    -0.000 C 
BRANCH  16  17
ATOM     17  C   UNL     1      10.969  34.243  29.934  1.00  0.00    -0.000 C 
BRANCH  17  18
ATOM     18  C   UNL     1      11.995  34.465  31.049  1.00  0.00    -0.000 C 
BRANCH  18  19
ATOM     19  C   UNL     1      13.428  34.616  30.531  1.00  0.00    -0.003 C 
ATOM     20  C   UNL     1      13.994  33.340  29.928  1.00  0.00     0.004 C 
ENDBRANCH  18  19
ENDBRANCH  17  18
ENDBRANCH  16  17
ENDBRANCH  15  16
ENDBRANCH  14  15
ENDBRANCH  13  14
ENDBRANCH  12  13
ENDBRANCH   1  12
TORSDOF 16
ENDMDL
MODEL 9
REMARK VINA RESULT:    -5.502      4.662      6.430
REMARK INTER + INTRA:         -13.161
REMARK INTER:                 -12.037
REMARK INTRA:                  -1.124
REMARK UNBOUND:                -2.514
REMARK SMILES CCCCCCCCCCCCCCCCCC(=O)[O-]
REMARK SMILES IDX 10 1 11 2 12 3 13 4 14 5 15 6 16 7 17 8 18 9 19 10 20 11
REMARK SMILES IDX 9 12 8 13 7 14 6 15 5 16 4 17 3 18 2 19 1 20
REMARK H PARENT
REMARK INDEX MAP 4 1 6 2 8 3 10 4 12 5 14 6 16 7 18 8 20 9 2 10 1 11 3 12 5 13
REMARK INDEX MAP 7 14 9 15 11 16 13 17 15 18 17 19 19 20
ROOT
ATOM      1  C   UNL     1      10.644  32.077  22.748  1.00  0.00     0.000 C 
ENDROOT
BRANCH   1   2
ATOM      2  C   UNL     1      12.081  32.143  23.283  1.00  0.00     0.000 C 
BRANCH   2   3
ATOM      3  C   UNL     1      12.146  32.549  24.758  1.00  0.00     0.000 C 
BRANCH   3   4
ATOM      4  C   UNL     1      10.799  33.014  25.323  1.00  0.00     0.000 C 
BRANCH   4   5
ATOM      5  C   UNL     1      10.853  34.181  26.313  1.00  0.00     0.000 C 
BRANCH   5   6
ATOM      6  C   UNL     1      12.249  34.569  26.814  1.00  0.00     0.000 C 
BRANCH   6   7
ATOM      7  C   UNL     1      12.333  34.732  28.334  1.00  0.00     0.006 C 
BRANCH   7   8
ATOM      8  C   UNL     1      13.078  33.576  28.998  1.00  0.00     0.053 C 
BRANCH   8   9
ATOM      9  C   UNL     1      13.761  33.983  30.274  1.00  0.00     0.041 C 
ATOM     10  O   UNL     1      14.904  34.393  30.378  1.00  0.00    -0.550 OA
ATOM     11  O   UNL     1      12.968  33.878  31.356  1.00  0.00    -0.550 OA
ENDBRANCH   8   9
ENDBRANCH   7   8
ENDBRANCH   6   7
ENDBRANCH   5   6
ENDBRANCH   4   5
ENDBRANCH   3   4
ENDBRANCH   2   3
ENDBRANCH   1   2
BRANCH   1  12
ATOM     12  C   UNL     1      10.501  31.487  21.340  1.00  0.00     0.000 C 
BRANCH  12  13
ATOM     13  C   UNL     1       9.128  31.701  20.704  1.00  0.00    -0.000 C 
BRANCH  13  14
ATOM     14  C   UNL     1       9.196  32.091  19.224  1.00  0.00    -0.000 C 
BRANCH  14  15
ATOM     15  C   UNL     1       9.421  30.937  18.241  1.00  0.00    -0.000 C 
BRANCH  15  16
ATOM     16  C   UNL     1       8.235  30.596  17.334  1.00  0.00    -0.000 C 
BRANCH  16  17
ATOM     17  C   UNL     1       7.326  29.506  17.906  1.00  0.00    -0.000 C 
BRANCH  17  18
ATOM     18  C   UNL     1       5.872  29.979  17.977  1.00  0.00    -0.000 C 
BRANCH  18  19
ATOM     19  C   UNL     1       5.731  31.443  18.401  1.00  0.00    -0.003 C 
ATOM     20  C   UNL     1       5.280  31.617  19.844  1.00  0.00     0.004 C 
ENDBRANCH  18  19
ENDBRANCH  17  18
ENDBRANCH  16  17
ENDBRANCH  15  16
ENDBRANCH  14  15
ENDBRANCH  13  14
ENDBRANCH  12  13
ENDBRANCH   1  12
TORSDOF 16
ENDMDL
MODEL 10
REMARK VINA RESULT:    -5.495      3.898      5.615
REMARK INTER + INTRA:         -13.149
REMARK INTER:                 -11.944
REMARK INTRA:                  -1.205
REMARK UNBOUND:                -2.514
REMARK SMILES CCCCCCCCCCCCCCCCCC(=O)[O-]
REMARK SMILES IDX 10 1 11 2 12 3 13 4 14 5 15 6 16 7 17 8 18 9 19 10 20 11
REMARK SMILES IDX 9 12 8 13 7 14 6 15 5 16 4 17 3 18 2 19 1 20
REMARK H PARENT
REMARK INDEX MAP 4 1 6 2 8 3 10 4 12 5 14 6 16 7 18 8 20 9 2 10 1 11 3 12 5 13
REMARK INDEX MAP 7 14 9 15 11 16 13 17 15 18 17 19 19 20
ROOT
ATOM      1  C   UNL     1       9.557  31.956  21.258  1.00  0.00     0.000 C 
ENDROOT
BRANCH   1   2
ATOM      2  C   UNL     1      10.875  31.330  21.732  1.00  0.00     0.000 C 
BRANCH   2   3
ATOM      3  C   UNL     1      11.463  32.041  22.955  1.00  0.00     0.000 C 
BRANCH   3   4
ATOM      4  C   UNL     1      10.399  32.623  23.892  1.00  0.00     0.000 C 
BRANCH   4   5
ATOM      5  C   UNL     1      10.764  32.663  25.379  1.00  0.00     0.000 C 
BRANCH   5   6
ATOM      6  C   UNL     1      12.096  33.338  25.723  1.00  0.00     0.000 C 
BRANCH   6   7
ATOM      7  C   UNL     1      12.202  33.778  27.186  1.00  0.00     0.006 C 
BRANCH   7   8
ATOM      8  C   UNL     1      12.043  35.288  27.348  1.00  0.00     0.053 C 
BRANCH   8   9
ATOM      9  C   UNL     1      13.058  35.881  28.286  1.00  0.00     0.041 C 
ATOM     10  O   UNL     1      13.179  35.622  29.471  1.00  0.00    -0.550 OA
ATOM     11  O   UNL     1      13.888  36.752  27.686  1.00  0.00    -0.550 OA
ENDBRANCH   8   9
ENDBRANCH   7   8
ENDBRANCH   6   7
ENDBRANCH   5   6
ENDBRANCH   4   5
ENDBRANCH   3   4
ENDBRANCH   2   3
ENDBRANCH   1   2
BRANCH   1  12
ATOM     12  C   UNL     1       9.196  31.679  19.794  1.00  0.00     0.000 C 
BRANCH  12  13
ATOM     13  C   UNL     1       7.835  32.226  19.366  1.00  0.00    -0.000 C 
BRANCH  13  14
ATOM     14  C   UNL     1       6.699  31.850  20.322  1.00  0.00    -0.000 C 
BRANCH  14  15
ATOM     15  C   UNL     1       5.309  31.726  19.689  1.00  0.00    -0.000 C 
BRANCH  15  16
ATOM     16  C   UNL     1       5.195  32.202  18.237  1.00  0.00    -0.000 C 
BRANCH  16  17
ATOM     17  C   UNL     1       4.794  31.091  17.264  1.00  0.00    -0.000 C 
BRANCH  17  18
ATOM     18  C   UNL     1       5.597  29.813  17.520  1.00  0.00    -0.000 C 
BRANCH  18  19
ATOM     19  C   UNL     1       6.818  29.672  16.607  1.00  0.00    -0.003 C 
ATOM     20  C   UNL     1       8.056  29.155  17.323  1.00  0.00     0.004 C 
ENDBRANCH  18  19
ENDBRANCH  17  18
ENDBRANCH  16  17
ENDBRANCH  15  16
ENDBRANCH  14  15
ENDBRANCH  13  14
ENDBRANCH  12  13
ENDBRANCH   1  12
TORSDOF 16
ENDMDL
MODEL 11
REMARK VINA RESULT:    -5.494      1.860      3.982
REMARK INTER + INTRA:         -13.147
REMARK INTER:                 -11.692
REMARK INTRA:                  -1.456
REMARK UNBOUND:                -2.514
REMARK SMILES CCCCCCCCCCCCCCCCCC(=O)[O-]
REMARK SMILES IDX 10 1 11 2 12 3 13 4 14 5 15 6 16 7 17 8 18 9 19 10 20 11
REMARK SMILES IDX 9 12 8 13 7 14 6 15 5 16 4 17 3 18 2 19 1 20
REMARK H PARENT
REMARK INDEX MAP 4 1 6 2 8 3 10 4 12 5 14 6 16 7 18 8 20 9 2 10 1 11 3 12 5 13
REMARK INDEX MAP 7 14 9 15 11 16 13 17 15 18 17 19 19 20
ROOT
ATOM      1  C   UNL     1       8.392  31.561  16.204  1.00  0.00     0.000 C 
ENDROOT
BRANCH   1   2
ATOM      2  C   UNL     1       9.294  32.314  17.191  1.00  0.00     0.000 C 
BRANCH   2   3
ATOM      3  C   UNL     1      10.272  31.390  17.923  1.00  0.00     0.000 C 
BRANCH   3   4
ATOM      4  C   UNL     1      10.469  31.755  19.398  1.00  0.00     0.000 C 
BRANCH   4   5
ATOM      5  C   UNL     1       9.246  31.574  20.304  1.00  0.00     0.000 C 
BRANCH   5   6
ATOM      6  C   UNL     1       9.391  32.102  21.735  1.00  0.00     0.000 C 
BRANCH   6   7
ATOM      7  C   UNL     1      10.845  32.313  22.168  1.00  0.00     0.006 C 
BRANCH   7   8
ATOM      8  C   UNL     1      10.999  32.320  23.687  1.00  0.00     0.053 C 
BRANCH   8   9
ATOM      9  C   UNL     1      12.414  32.065  24.127  1.00  0.00     0.041 C 
ATOM     10  O   UNL     1      12.824  32.081  25.275  1.00  0.00    -0.550 OA
ATOM     11  O   UNL     1      13.242  31.776  23.107  1.00  0.00    -0.550 OA
ENDBRANCH   8   9
ENDBRANCH   7   8
ENDBRANCH   6   7
ENDBRANCH   5   6
ENDBRANCH   4   5
ENDBRANCH   3   4
ENDBRANCH   2   3
ENDBRANCH   1   2
BRANCH   1  12
ATOM     12  C   UNL     1       8.210  30.067  16.501  1.00  0.00     0.000 C 
BRANCH  12  13
ATOM     13  C   UNL     1       6.783  29.667  16.871  1.00  0.00    -0.000 C 
BRANCH  13  14
ATOM     14  C   UNL     1       6.587  29.425  18.370  1.00  0.00    -0.000 C 
BRANCH  14  15
ATOM     15  C   UNL     1       6.506  30.681  19.243  1.00  0.00    -0.000 C 
BRANCH  15  16
ATOM     16  C   UNL     1       5.223  31.507  19.102  1.00  0.00    -0.000 C 
BRANCH  16  17
ATOM     17  C   UNL     1       5.305  32.577  18.011  1.00  0.00    -0.000 C 
BRANCH  17  18
ATOM     18  C   UNL     1       4.173  32.417  16.993  1.00  0.00    -0.000 C 
BRANCH  18  19
ATOM     19  C   UNL     1       3.692  33.747  16.408  1.00  0.00    -0.003 C 
ATOM     20  C   UNL     1       4.817  34.736  16.142  1.00  0.00     0.004 C 
ENDBRANCH  18  19
ENDBRANCH  17  18
ENDBRANCH  16  17
ENDBRANCH  15  16
ENDBRANCH  14  15
ENDBRANCH  13  14
ENDBRANCH  12  13
ENDBRANCH   1  12
TORSDOF 16
ENDMDL
MODEL 12
REMARK VINA RESULT:    -5.489      3.053      4.588
REMARK INTER + INTRA:         -13.137
REMARK INTER:                 -11.778
REMARK INTRA:                  -1.359
REMARK UNBOUND:                -2.514
REMARK SMILES CCCCCCCCCCCCCCCCCC(=O)[O-]
REMARK SMILES IDX 10 1 11 2 12 3 13 4 14 5 15 6 16 7 17 8 18 9 19 10 20 11
REMARK SMILES IDX 9 12 8 13 7 14 6 15 5 16 4 17 3 18 2 19 1 20
REMARK H PARENT
REMARK INDEX MAP 4 1 6 2 8 3 10 4 12 5 14 6 16 7 18 8 20 9 2 10 1 11 3 12 5 13
REMARK INDEX MAP 7 14 9 15 11 16 13 17 15 18 17 19 19 20
ROOT
ATOM      1  C   UNL     1       8.866  32.512  18.724  1.00  0.00     0.000 C 
ENDROOT
BRANCH   1   2
ATOM      2  C   UNL     1       9.248  31.901  20.079  1.00  0.00     0.000 C 
BRANCH   2   3
ATOM      3  C   UNL     1      10.743  31.588  20.187  1.00  0.00     0.000 C 
BRANCH   3   4
ATOM      4  C   UNL     1      11.202  31.288  21.618  1.00  0.00     0.000 C 
BRANCH   4   5
ATOM      5  C   UNL     1      10.530  32.108  22.725  1.00  0.00     0.000 C 
BRANCH   5   6
ATOM      6  C   UNL     1      11.273  32.158  24.064  1.00  0.00     0.000 C 
BRANCH   6   7
ATOM      7  C   UNL     1      10.513  32.910  25.160  1.00  0.00     0.006 C 
BRANCH   7   8
ATOM      8  C   UNL     1      11.450  33.663  26.101  1.00  0.00     0.053 C 
BRANCH   8   9
ATOM      9  C   UNL     1      11.544  33.026  27.460  1.00  0.00     0.041 C 
ATOM     10  O   UNL     1      10.609  32.625  28.131  1.00  0.00    -0.550 OA
ATOM     11  O   UNL     1      12.809  32.901  27.900  1.00  0.00    -0.550 OA
ENDBRANCH   8   9
ENDBRANCH   7   8
ENDBRANCH   6   7
ENDBRANCH   5   6
ENDBRANCH   4   5
ENDBRANCH   3   4
ENDBRANCH   2   3
ENDBRANCH   1   2
BRANCH   1  12
ATOM     12  C   UNL     1       9.564  31.886  17.510  1.00  0.00     0.000 C 
BRANCH  12  13
ATOM     13  C   UNL     1       8.613  31.400  16.418  1.00  0.00    -0.000 C 
BRANCH  13  14
ATOM     14  C   UNL     1       8.012  30.020  16.702  1.00  0.00    -0.000 C 
BRANCH  14  15
ATOM     15  C   UNL     1       6.492  29.981  16.893  1.00  0.00    -0.000 C 
BRANCH  15  16
ATOM     16  C   UNL     1       6.004  30.033  18.345  1.00  0.00    -0.000 C 
BRANCH  16  17
ATOM     17  C   UNL     1       4.973  31.135  18.600  1.00  0.00    -0.000 C 
BRANCH  17  18
ATOM     18  C   UNL     1       5.372  32.438  17.903  1.00  0.00    -0.000 C 
BRANCH  18  19
ATOM     19  C   UNL     1       4.251  33.037  17.050  1.00  0.00    -0.003 C 
ATOM     20  C   UNL     1       4.672  34.278  16.277  1.00  0.00     0.004 C 
ENDBRANCH  18  19
ENDBRANCH  17  18
ENDBRANCH  16  17
ENDBRANCH  15  16
ENDBRANCH  14  15
ENDBRANCH  13  14
ENDBRANCH  12  13
ENDBRANCH   1  12
TORSDOF 16
ENDMDL
MODEL 13
REMARK VINA RESULT:    -5.448      3.074      7.836
REMARK INTER + INTRA:         -13.057
REMARK INTER:                 -11.705
REMARK INTRA:                  -1.352
REMARK UNBOUND:                -2.514
REMARK SMILES CCCCCCCCCCCCCCCCCC(=O)[O-]
REMARK SMILES IDX 10 1 11 2 12 3 13 4 14 5 15 6 16 7 17 8 18 9 19 10 20 11
REMARK SMILES IDX 9 12 8 13 7 14 6 15 5 16 4 17 3 18 2 19 1 20
REMARK H PARENT
REMARK INDEX MAP 4 1 6 2 8 3 10 4 12 5 14 6 16 7 18 8 20 9 2 10 1 11 3 12 5 13
REMARK INDEX MAP 7 14 9 15 11 16 13 17 15 18 17 19 19 20
ROOT
ATOM      1  C   UNL     1       9.840  31.834  20.090  1.00  0.00     0.000 C 
ENDROOT
BRANCH   1   2
ATOM      2  C   UNL     1      10.790  31.820  18.885  1.00  0.00     0.000 C 
BRANCH   2   3
ATOM      3  C   UNL     1      10.551  32.994  17.930  1.00  0.00     0.000 C 
BRANCH   3   4
ATOM      4  C   UNL     1      10.281  32.560  16.485  1.00  0.00     0.000 C 
BRANCH   4   5
ATOM      5  C   UNL     1       8.826  32.657  16.015  1.00  0.00     0.000 C 
BRANCH   5   6
ATOM      6  C   UNL     1       7.822  33.170  17.053  1.00  0.00     0.000 C 
BRANCH   6   7
ATOM      7  C   UNL     1       7.070  32.054  17.784  1.00  0.00     0.006 C 
BRANCH   7   8
ATOM      8  C   UNL     1       7.110  30.733  17.019  1.00  0.00     0.053 C 
BRANCH   8   9
ATOM      9  C   UNL     1       7.834  29.650  17.769  1.00  0.00     0.041 C 
ATOM     10  O   UNL     1       8.942  29.213  17.509  1.00  0.00    -0.550 OA
ATOM     11  O   UNL     1       7.143  29.184  18.825  1.00  0.00    -0.550 OA
ENDBRANCH   8   9
ENDBRANCH   7   8
ENDBRANCH   6   7
ENDBRANCH   5   6
ENDBRANCH   4   5
ENDBRANCH   3   4
ENDBRANCH   2   3
ENDBRANCH   1   2
BRANCH   1  12
ATOM     12  C   UNL     1      10.469  31.394  21.418  1.00  0.00     0.000 C 
BRANCH  12  13
ATOM     13  C   UNL     1      10.444  32.461  22.511  1.00  0.00    -0.000 C 
BRANCH  13  14
ATOM     14  C   UNL     1      10.871  31.936  23.885  1.00  0.00    -0.000 C 
BRANCH  14  15
ATOM     15  C   UNL     1      12.278  32.334  24.342  1.00  0.00    -0.000 C 
BRANCH  15  16
ATOM     16  C   UNL     1      12.343  33.318  25.515  1.00  0.00    -0.000 C 
BRANCH  16  17
ATOM     17  C   UNL     1      10.970  33.649  26.106  1.00  0.00    -0.000 C 
BRANCH  17  18
ATOM     18  C   UNL     1      10.970  35.033  26.761  1.00  0.00    -0.000 C 
BRANCH  18  19
ATOM     19  C   UNL     1      12.155  35.258  27.703  1.00  0.00    -0.003 C 
ATOM     20  C   UNL     1      12.042  34.498  29.016  1.00  0.00     0.004 C 
ENDBRANCH  18  19
ENDBRANCH  17  18
ENDBRANCH  16  17
ENDBRANCH  15  16
ENDBRANCH  14  15
ENDBRANCH  13  14
ENDBRANCH  12  13
ENDBRANCH   1  12
TORSDOF 16
ENDMDL
MODEL 14
REMARK VINA RESULT:    -5.432      4.712      6.515
REMARK INTER + INTRA:         -13.026
REMARK INTER:                 -12.052
REMARK INTRA:                  -0.974
REMARK UNBOUND:                -2.514
REMARK SMILES CCCCCCCCCCCCCCCCCC(=O)[O-]
REMARK SMILES IDX 10 1 11 2 12 3 13 4 14 5 15 6 16 7 17 8 18 9 19 10 20 11
REMARK SMILES IDX 9 12 8 13 7 14 6 15 5 16 4 17 3 18 2 19 1 20
REMARK H PARENT
REMARK INDEX MAP 4 1 6 2 8 3 10 4 12 5 14 6 16 7 18 8 20 9 2 10 1 11 3 12 5 13
REMARK INDEX MAP 7 14 9 15 11 16 13 17 15 18 17 19 19 20
ROOT
ATOM      1  C   UNL     1      11.295  32.171  22.567  1.00  0.00     0.000 C 
ENDROOT
BRANCH   1   2
ATOM      2  C   UNL     1      11.454  32.230  24.092  1.00  0.00     0.000 C 
BRANCH   2   3
ATOM      3  C   UNL     1      10.216  32.798  24.794  1.00  0.00     0.000 C 
BRANCH   3   4
ATOM      4  C   UNL     1      10.462  33.166  26.261  1.00  0.00     0.000 C 
BRANCH   4   5
ATOM      5  C   UNL     1      11.141  34.516  26.510  1.00  0.00     0.000 C 
BRANCH   5   6
ATOM      6  C   UNL     1      12.559  34.455  27.088  1.00  0.00     0.000 C 
BRANCH   6   7
ATOM      7  C   UNL     1      12.727  33.410  28.194  1.00  0.00     0.006 C 
BRANCH   7   8
ATOM      8  C   UNL     1      12.793  34.044  29.582  1.00  0.00     0.053 C 
BRANCH   8   9
ATOM      9  C   UNL     1      14.123  33.835  30.252  1.00  0.00     0.041 C 
ATOM     10  O   UNL     1      14.905  32.926  30.030  1.00  0.00    -0.550 OA
ATOM     11  O   UNL     1      14.419  34.791  31.152  1.00  0.00    -0.550 OA
ENDBRANCH   8   9
ENDBRANCH   7   8
ENDBRANCH   6   7
ENDBRANCH   5   6
ENDBRANCH   4   5
ENDBRANCH   3   4
ENDBRANCH   2   3
ENDBRANCH   1   2
BRANCH   1  12
ATOM     12  C   UNL     1       9.848  32.217  22.062  1.00  0.00     0.000 C 
BRANCH  12  13
ATOM     13  C   UNL     1       9.655  31.662  20.652  1.00  0.00    -0.000 C 
BRANCH  13  14
ATOM     14  C   UNL     1      10.938  31.663  19.815  1.00  0.00    -0.000 C 
BRANCH  14  15
ATOM     15  C   UNL     1      10.741  31.663  18.296  1.00  0.00    -0.000 C 
BRANCH  15  16
ATOM     16  C   UNL     1       9.757  32.704  17.752  1.00  0.00    -0.000 C 
BRANCH  16  17
ATOM     17  C   UNL     1       8.389  32.117  17.396  1.00  0.00    -0.000 C 
BRANCH  17  18
ATOM     18  C   UNL     1       8.531  30.896  16.484  1.00  0.00    -0.000 C 
BRANCH  18  19
ATOM     19  C   UNL     1       7.836  29.647  17.032  1.00  0.00    -0.003 C 
ATOM     20  C   UNL     1       6.319  29.697  16.922  1.00  0.00     0.004 C 
ENDBRANCH  18  19
ENDBRANCH  17  18
ENDBRANCH  16  17
ENDBRANCH  15  16
ENDBRANCH  14  15
ENDBRANCH  13  14
ENDBRANCH  12  13
ENDBRANCH   1  12
TORSDOF 16
ENDMDL
MODEL 15
REMARK VINA RESULT:    -5.423      1.878      5.843
REMARK INTER + INTRA:         -13.009
REMARK INTER:                 -11.413
REMARK INTRA:                  -1.596
REMARK UNBOUND:                -2.514
REMARK SMILES CCCCCCCCCCCCCCCCCC(=O)[O-]
REMARK SMILES IDX 10 1 11 2 12 3 13 4 14 5 15 6 16 7 17 8 18 9 19 10 20 11
REMARK SMILES IDX 9 12 8 13 7 14 6 15 5 16 4 17 3 18 2 19 1 20
REMARK H PARENT
REMARK INDEX MAP 4 1 6 2 8 3 10 4 12 5 14 6 16 7 18 8 20 9 2 10 1 11 3 12 5 13
REMARK INDEX MAP 7 14 9 15 11 16 13 17 15 18 17 19 19 20
ROOT
ATOM      1  C   UNL     1      10.404  31.391  22.003  1.00  0.00     0.000 C 
ENDROOT
BRANCH   1   2
ATOM      2  C   UNL     1      11.146  31.782  20.719  1.00  0.00     0.000 C 
BRANCH   2   3
ATOM      3  C   UNL     1      10.222  31.851  19.499  1.00  0.00     0.000 C 
BRANCH   3   4
ATOM      4  C   UNL     1      10.971  31.818  18.163  1.00  0.00     0.000 C 
BRANCH   4   5
ATOM      5  C   UNL     1      10.464  32.781  17.085  1.00  0.00     0.000 C 
BRANCH   5   6
ATOM      6  C   UNL     1       9.041  33.315  17.281  1.00  0.00     0.000 C 
BRANCH   6   7
ATOM      7  C   UNL     1       7.953  32.363  16.777  1.00  0.00     0.006 C 
BRANCH   7   8
ATOM      8  C   UNL     1       8.537  31.126  16.097  1.00  0.00     0.053 C 
BRANCH   8   9
ATOM      9  C   UNL     1       8.009  29.842  16.676  1.00  0.00     0.041 C 
ATOM     10  O   UNL     1       6.931  29.331  16.426  1.00  0.00    -0.550 OA
ATOM     11  O   UNL     1       8.872  29.250  17.522  1.00  0.00    -0.550 OA
ENDBRANCH   8   9
ENDBRANCH   7   8
ENDBRANCH   6   7
ENDBRANCH   5   6
ENDBRANCH   4   5
ENDBRANCH   3   4
ENDBRANCH   2   3
ENDBRANCH   1   2
BRANCH   1  12
ATOM     12  C   UNL     1      10.654  32.312  23.204  1.00  0.00     0.000 C 
BRANCH  12  13
ATOM     13  C   UNL     1       9.396  32.977  23.760  1.00  0.00    -0.000 C 
BRANCH  13  14
ATOM     14  C   UNL     1       8.623  33.788  22.716  1.00  0.00    -0.000 C 
BRANCH  14  15
ATOM     15  C   UNL     1       7.194  33.315  22.431  1.00  0.00    -0.000 C 
BRANCH  15  16
ATOM     16  C   UNL     1       7.034  32.360  21.243  1.00  0.00    -0.000 C 
BRANCH  16  17
ATOM     17  C   UNL     1       5.575  32.114  20.852  1.00  0.00    -0.000 C 
BRANCH  17  18
ATOM     18  C   UNL     1       5.477  31.336  19.538  1.00  0.00    -0.000 C 
BRANCH  18  19
ATOM     19  C   UNL     1       4.825  32.136  18.407  1.00  0.00    -0.003 C 
ATOM     20  C   UNL     1       4.343  31.272  17.251  1.00  0.00     0.004 C 
ENDBRANCH  18  19
ENDBRANCH  17  18
ENDBRANCH  16  17
ENDBRANCH  15  16
ENDBRANCH  14  15
ENDBRANCH  13  14
ENDBRANCH  12  13
ENDBRANCH   1  12
TORSDOF 16
ENDMDL
MODEL 16
REMARK VINA RESULT:    -5.410      3.218      7.831
REMARK INTER + INTRA:         -12.984
REMARK INTER:                 -11.921
REMARK INTRA:                  -1.063
REMARK UNBOUND:                -2.514
REMARK SMILES CCCCCCCCCCCCCCCCCC(=O)[O-]
REMARK SMILES IDX 10 1 11 2 12 3 13 4 14 5 15 6 16 7 17 8 18 9 19 10 20 11
REMARK SMILES IDX 9 12 8 13 7 14 6 15 5 16 4 17 3 18 2 19 1 20
REMARK H PARENT
REMARK INDEX MAP 4 1 6 2 8 3 10 4 12 5 14 6 16 7 18 8 20 9 2 10 1 11 3 12 5 13
REMARK INDEX MAP 7 14 9 15 11 16 13 17 15 18 17 19 19 20
ROOT
ATOM      1  C   UNL     1      11.057  31.539  20.312  1.00  0.00     0.000 C 
ENDROOT
BRANCH   1   2
ATOM      2  C   UNL     1       9.793  31.691  19.457  1.00  0.00     0.000 C 
BRANCH   2   3
ATOM      3  C   UNL     1       8.509  31.400  20.241  1.00  0.00     0.000 C 
BRANCH   3   4
ATOM      4  C   UNL     1       7.312  32.240  19.786  1.00  0.00     0.000 C 
BRANCH   4   5
ATOM      5  C   UNL     1       5.930  31.715  20.189  1.00  0.00     0.000 C 
BRANCH   5   6
ATOM      6  C   UNL     1       5.136  31.009  19.086  1.00  0.00     0.000 C 
BRANCH   6   7
ATOM      7  C   UNL     1       5.725  31.201  17.685  1.00  0.00     0.006 C 
BRANCH   7   8
ATOM      8  C   UNL     1       6.033  29.871  17.001  1.00  0.00     0.053 C 
BRANCH   8   9
ATOM      9  C   UNL     1       7.495  29.521  17.046  1.00  0.00     0.041 C 
ATOM     10  O   UNL     1       8.029  28.764  17.839  1.00  0.00    -0.550 OA
ATOM     11  O   UNL     1       8.213  30.120  16.079  1.00  0.00    -0.550 OA
ENDBRANCH   8   9
ENDBRANCH   7   8
ENDBRANCH   6   7
ENDBRANCH   5   6
ENDBRANCH   4   5
ENDBRANCH   3   4
ENDBRANCH   2   3
ENDBRANCH   1   2
BRANCH   1  12
ATOM     12  C   UNL     1      10.864  31.807  21.810  1.00  0.00     0.000 C 
BRANCH  12  13
ATOM     13  C   UNL     1      12.155  31.783  22.626  1.00  0.00    -0.000 C 
BRANCH  13  14
ATOM     14  C   UNL     1      12.005  32.392  24.023  1.00  0.00    -0.000 C 
BRANCH  14  15
ATOM     15  C   UNL     1      10.591  32.370  24.611  1.00  0.00    -0.000 C 
BRANCH  15  16
ATOM     16  C   UNL     1      10.432  33.026  25.987  1.00  0.00    -0.000 C 
BRANCH  16  17
ATOM     17  C   UNL     1      10.927  34.473  26.031  1.00  0.00    -0.000 C 
BRANCH  17  18
ATOM     18  C   UNL     1      12.248  34.583  26.796  1.00  0.00    -0.000 C 
BRANCH  18  19
ATOM     19  C   UNL     1      12.152  35.460  28.047  1.00  0.00    -0.003 C 
ATOM     20  C   UNL     1      13.408  36.277  28.313  1.00  0.00     0.004 C 
ENDBRANCH  18  19
ENDBRANCH  17  18
ENDBRANCH  16  17
ENDBRANCH  15  16
ENDBRANCH  14  15
ENDBRANCH  13  14
ENDBRANCH  12  13
ENDBRANCH   1  12
TORSDOF 16
ENDMDL
MODEL 17
REMARK VINA RESULT:    -5.374      3.055      5.025
REMARK INTER + INTRA:         -12.915
REMARK INTER:                 -11.663
REMARK INTRA:                  -1.252
REMARK UNBOUND:                -2.514
REMARK SMILES CCCCCCCCCCCCCCCCCC(=O)[O-]
REMARK SMILES IDX 10 1 11 2 12 3 13 4 14 5 15 6 16 7 17 8 18 9 19 10 20 11
REMARK SMILES IDX 9 12 8 13 7 14 6 15 5 16 4 17 3 18 2 19 1 20
REMARK H PARENT
REMARK INDEX MAP 4 1 6 2 8 3 10 4 12 5 14 6 16 7 18 8 20 9 2 10 1 11 3 12 5 13
REMARK INDEX MAP 7 14 9 15 11 16 13 17 15 18 17 19 19 20
ROOT
ATOM      1  C   UNL     1      10.920  31.970  18.884  1.00  0.00     0.000 C 
ENDROOT
BRANCH   1   2
ATOM      2  C   UNL     1       9.780  31.535  19.815  1.00  0.00     0.000 C 
BRANCH   2   3
ATOM      3  C   UNL     1      10.202  31.490  21.287  1.00  0.00     0.000 C 
BRANCH   3   4
ATOM      4  C   UNL     1      11.722  31.497  21.486  1.00  0.00     0.000 C 
BRANCH   4   5
ATOM      5  C   UNL     1      12.211  31.780  22.910  1.00  0.00     0.000 C 
BRANCH   5   6
ATOM      6  C   UNL     1      11.175  32.379  23.866  1.00  0.00     0.000 C 
BRANCH   6   7
ATOM      7  C   UNL     1      11.769  32.857  25.194  1.00  0.00     0.006 C 
BRANCH   7   8
ATOM      8  C   UNL     1      10.714  32.966  26.293  1.00  0.00     0.053 C 
BRANCH   8   9
ATOM      9  C   UNL     1      11.313  32.993  27.672  1.00  0.00     0.041 C 
ATOM     10  O   UNL     1      10.713  33.203  28.712  1.00  0.00    -0.550 OA
ATOM     11  O   UNL     1      12.632  32.729  27.681  1.00  0.00    -0.550 OA
ENDBRANCH   8   9
ENDBRANCH   7   8
ENDBRANCH   6   7
ENDBRANCH   5   6
ENDBRANCH   4   5
ENDBRANCH   3   4
ENDBRANCH   2   3
ENDBRANCH   1   2
BRANCH   1  12
ATOM     12  C   UNL     1      10.500  32.883  17.726  1.00  0.00     0.000 C 
BRANCH  12  13
ATOM     13  C   UNL     1       9.153  32.527  17.099  1.00  0.00    -0.000 C 
BRANCH  13  14
ATOM     14  C   UNL     1       7.995  33.389  17.612  1.00  0.00    -0.000 C 
BRANCH  14  15
ATOM     15  C   UNL     1       6.603  33.011  17.095  1.00  0.00    -0.000 C 
BRANCH  15  16
ATOM     16  C   UNL     1       5.668  32.360  18.120  1.00  0.00    -0.000 C 
BRANCH  16  17
ATOM     17  C   UNL     1       4.835  31.214  17.541  1.00  0.00    -0.000 C 
BRANCH  17  18
ATOM     18  C   UNL     1       5.730  30.079  17.037  1.00  0.00    -0.000 C 
BRANCH  18  19
ATOM     19  C   UNL     1       6.825  29.684  18.030  1.00  0.00    -0.003 C 
ATOM     20  C   UNL     1       8.063  29.096  17.369  1.00  0.00     0.004 C 
ENDBRANCH  18  19
ENDBRANCH  17  18
ENDBRANCH  16  17
ENDBRANCH  15  16
ENDBRANCH  14  15
ENDBRANCH  13  14
ENDBRANCH  12  13
ENDBRANCH   1  12
TORSDOF 16
ENDMDL
MODEL 18
REMARK VINA RESULT:    -5.360      5.360     10.206
REMARK INTER + INTRA:         -12.887
REMARK INTER:                 -11.222
REMARK INTRA:                  -1.666
REMARK UNBOUND:                -2.514
REMARK SMILES CCCCCCCCCCCCCCCCCC(=O)[O-]
REMARK SMILES IDX 10 1 11 2 12 3 13 4 14 5 15 6 16 7 17 8 18 9 19 10 20 11
REMARK SMILES IDX 9 12 8 13 7 14 6 15 5 16 4 17 3 18 2 19 1 20
REMARK H PARENT
REMARK INDEX MAP 4 1 6 2 8 3 10 4 12 5 14 6 16 7 18 8 20 9 2 10 1 11 3 12 5 13
REMARK INDEX MAP 7 14 9 15 11 16 13 17 15 18 17 19 19 20
ROOT
ATOM      1  C   UNL     1      10.946  33.207  27.519  1.00  0.00     0.000 C 
ENDROOT
BRANCH   1   2
ATOM      2  C   UNL     1      10.138  32.588  26.372  1.00  0.00     0.000 C 
BRANCH   2   3
ATOM      3  C   UNL     1      10.388  33.283  25.030  1.00  0.00     0.000 C 
BRANCH   3   4
ATOM      4  C   UNL     1      10.337  32.330  23.830  1.00  0.00     0.000 C 
BRANCH   4   5
ATOM      5  C   UNL     1      11.675  32.047  23.140  1.00  0.00     0.000 C 
BRANCH   5   6
ATOM      6  C   UNL     1      11.587  31.431  21.740  1.00  0.00     0.000 C 
BRANCH   6   7
ATOM      7  C   UNL     1      10.257  31.704  21.031  1.00  0.00     0.006 C 
BRANCH   7   8
ATOM      8  C   UNL     1      10.424  31.834  19.519  1.00  0.00     0.053 C 
BRANCH   8   9
ATOM      9  C   UNL     1       9.352  31.111  18.752  1.00  0.00     0.041 C 
ATOM     10  O   UNL     1       9.386  30.823  17.567  1.00  0.00    -0.550 OA
ATOM     11  O   UNL     1       8.300  30.761  19.514  1.00  0.00    -0.550 OA
ENDBRANCH   8   9
ENDBRANCH   7   8
ENDBRANCH   6   7
ENDBRANCH   5   6
ENDBRANCH   4   5
ENDBRANCH   3   4
ENDBRANCH   2   3
ENDBRANCH   1   2
BRANCH   1  12
ATOM     12  C   UNL     1      11.345  34.674  27.317  1.00  0.00     0.000 C 
BRANCH  12  13
ATOM     13  C   UNL     1      12.851  34.912  27.238  1.00  0.00    -0.000 C 
BRANCH  13  14
ATOM     14  C   UNL     1      13.304  36.191  27.949  1.00  0.00    -0.000 C 
BRANCH  14  15
ATOM     15  C   UNL     1      13.756  36.020  29.403  1.00  0.00    -0.000 C 
BRANCH  15  16
ATOM     16  C   UNL     1      13.983  34.576  29.864  1.00  0.00    -0.000 C 
BRANCH  16  17
ATOM     17  C   UNL     1      12.867  34.044  30.765  1.00  0.00    -0.000 C 
BRANCH  17  18
ATOM     18  C   UNL     1      11.957  35.177  31.247  1.00  0.00    -0.000 C 
BRANCH  18  19
ATOM     19  C   UNL     1      10.499  35.009  30.813  1.00  0.00    -0.003 C 
ATOM     20  C   UNL     1       9.865  36.295  30.304  1.00  0.00     0.004 C 
ENDBRANCH  18  19
ENDBRANCH  17  18
ENDBRANCH  16  17
ENDBRANCH  15  16
ENDBRANCH  14  15
ENDBRANCH  13  14
ENDBRANCH  12  13
ENDBRANCH   1  12
TORSDOF 16
ENDMDL
MODEL 19
REMARK VINA RESULT:    -5.335      4.013      8.949
REMARK INTER + INTRA:         -12.838
REMARK INTER:                 -11.860
REMARK INTRA:                  -0.978
REMARK UNBOUND:                -2.514
REMARK SMILES CCCCCCCCCCCCCCCCCC(=O)[O-]
REMARK SMILES IDX 10 1 11 2 12 3 13 4 14 5 15 6 16 7 17 8 18 9 19 10 20 11
REMARK SMILES IDX 9 12 8 13 7 14 6 15 5 16 4 17 3 18 2 19 1 20
REMARK H PARENT
REMARK INDEX MAP 4 1 6 2 8 3 10 4 12 5 14 6 16 7 18 8 20 9 2 10 1 11 3 12 5 13
REMARK INDEX MAP 7 14 9 15 11 16 13 17 15 18 17 19 19 20
ROOT
ATOM      1  C   UNL     1      11.167  31.457  21.974  1.00  0.00     0.000 C 
ENDROOT
BRANCH   1   2
ATOM      2  C   UNL     1       9.894  31.492  21.118  1.00  0.00     0.000 C 
BRANCH   2   3
ATOM      3  C   UNL     1      10.182  31.775  19.640  1.00  0.00     0.000 C 
BRANCH   3   4
ATOM      4  C   UNL     1       8.946  31.650  18.743  1.00  0.00     0.000 C 
BRANCH   4   5
ATOM      5  C   UNL     1       9.006  30.564  17.664  1.00  0.00     0.000 C 
BRANCH   5   6
ATOM      6  C   UNL     1       7.847  30.551  16.663  1.00  0.00     0.000 C 
BRANCH   6   7
ATOM      7  C   UNL     1       6.747  29.544  17.010  1.00  0.00     0.006 C 
BRANCH   7   8
ATOM      8  C   UNL     1       5.382  30.210  17.167  1.00  0.00     0.053 C 
BRANCH   8   9
ATOM      9  C   UNL     1       5.285  31.045  18.415  1.00  0.00     0.041 C 
ATOM     10  O   UNL     1       5.241  32.262  18.463  1.00  0.00    -0.550 OA
ATOM     11  O   UNL     1       5.221  30.310  19.540  1.00  0.00    -0.550 OA
ENDBRANCH   8   9
ENDBRANCH   7   8
ENDBRANCH   6   7
ENDBRANCH   5   6
ENDBRANCH   4   5
ENDBRANCH   3   4
ENDBRANCH   2   3
ENDBRANCH   1   2
BRANCH   1  12
ATOM     12  C   UNL     1      11.079  32.221  23.301  1.00  0.00     0.000 C 
BRANCH  12  13
ATOM     13  C   UNL     1      12.365  32.204  24.124  1.00  0.00    -0.000 C 
BRANCH  13  14
ATOM     14  C   UNL     1      12.249  32.960  25.452  1.00  0.00    -0.000 C 
BRANCH  14  15
ATOM     15  C   UNL     1      10.856  33.498  25.793  1.00  0.00    -0.000 C 
BRANCH  15  16
ATOM     16  C   UNL     1      10.798  34.522  26.931  1.00  0.00    -0.000 C 
BRANCH  16  17
ATOM     17  C   UNL     1      12.144  35.197  27.209  1.00  0.00    -0.000 C 
BRANCH  17  18
ATOM     18  C   UNL     1      12.368  35.385  28.712  1.00  0.00    -0.000 C 
BRANCH  18  19
ATOM     19  C   UNL     1      12.321  34.074  29.499  1.00  0.00    -0.003 C 
ATOM     20  C   UNL     1      13.649  33.331  29.523  1.00  0.00     0.004 C 
ENDBRANCH  18  19
ENDBRANCH  17  18
ENDBRANCH  16  17
ENDBRANCH  15  16
ENDBRANCH  14  15
ENDBRANCH  13  14
ENDBRANCH  12  13
ENDBRANCH   1  12
TORSDOF 16
ENDMDL
MODEL 20
REMARK VINA RESULT:    -5.278      3.595      5.017
REMARK INTER + INTRA:         -12.728
REMARK INTER:                 -11.161
REMARK INTRA:                  -1.567
REMARK UNBOUND:                -2.514
REMARK SMILES CCCCCCCCCCCCCCCCCC(=O)[O-]
REMARK SMILES IDX 10 1 11 2 12 3 13 4 14 5 15 6 16 7 17 8 18 9 19 10 20 11
REMARK SMILES IDX 9 12 8 13 7 14 6 15 5 16 4 17 3 18 2 19 1 20
REMARK H PARENT
REMARK INDEX MAP 4 1 6 2 8 3 10 4 12 5 14 6 16 7 18 8 20 9 2 10 1 11 3 12 5 13
REMARK INDEX MAP 7 14 9 15 11 16 13 17 15 18 17 19 19 20
ROOT
ATOM      1  C   UNL     1       9.994  31.793  20.583  1.00  0.00     0.000 C 
ENDROOT
BRANCH   1   2
ATOM      2  C   UNL     1      10.116  32.187  22.060  1.00  0.00     0.000 C 
BRANCH   2   3
ATOM      3  C   UNL     1      11.448  31.755  22.680  1.00  0.00     0.000 C 
BRANCH   3   4
ATOM      4  C   UNL     1      11.706  32.367  24.061  1.00  0.00     0.000 C 
BRANCH   4   5
ATOM      5  C   UNL     1      10.464  32.641  24.916  1.00  0.00     0.000 C 
BRANCH   5   6
ATOM      6  C   UNL     1      10.720  33.310  26.271  1.00  0.00     0.000 C 
BRANCH   6   7
ATOM      7  C   UNL     1      11.863  34.328  26.247  1.00  0.00     0.006 C 
BRANCH   7   8
ATOM      8  C   UNL     1      12.187  34.865  27.640  1.00  0.00     0.053 C 
BRANCH   8   9
ATOM      9  C   UNL     1      12.348  33.772  28.660  1.00  0.00     0.041 C 
ATOM     10  O   UNL     1      13.220  32.921  28.670  1.00  0.00    -0.550 OA
ATOM     11  O   UNL     1      11.420  33.815  29.633  1.00  0.00    -0.550 OA
ENDBRANCH   8   9
ENDBRANCH   7   8
ENDBRANCH   6   7
ENDBRANCH   5   6
ENDBRANCH   4   5
ENDBRANCH   3   4
ENDBRANCH   2   3
ENDBRANCH   1   2
BRANCH   1  12
ATOM     12  C   UNL     1       8.621  31.251  20.165  1.00  0.00     0.000 C 
BRANCH  12  13
ATOM     13  C   UNL     1       7.445  32.143  20.559  1.00  0.00    -0.000 C 
BRANCH  13  14
ATOM     14  C   UNL     1       6.136  31.772  19.857  1.00  0.00    -0.000 C 
BRANCH  14  15
ATOM     15  C   UNL     1       6.205  30.568  18.912  1.00  0.00    -0.000 C 
BRANCH  15  16
ATOM     16  C   UNL     1       6.271  30.898  17.417  1.00  0.00    -0.000 C 
BRANCH  16  17
ATOM     17  C   UNL     1       7.426  30.203  16.692  1.00  0.00    -0.000 C 
BRANCH  17  18
ATOM     18  C   UNL     1       8.607  31.156  16.492  1.00  0.00    -0.000 C 
BRANCH  18  19
ATOM     19  C   UNL     1       8.206  32.633  16.524  1.00  0.00    -0.003 C 
ATOM     20  C   UNL     1       9.155  33.504  17.334  1.00  0.00     0.004 C 
ENDBRANCH  18  19
ENDBRANCH  17  18
ENDBRANCH  16  17
ENDBRANCH  15  16
ENDBRANCH  14  15
ENDBRANCH  13  14
ENDBRANCH  12  13
ENDBRANCH   1  12
TORSDOF 16
ENDMDL
