MODEL 1
REMARK VINA RESULT:    -6.001      0.000      0.000
REMARK INTER + INTRA:         -13.756
REMARK INTER:                 -11.613
REMARK INTRA:                  -2.142
REMARK UNBOUND:                -2.142
REMARK SMILES CCCCCCCCCCCCCCCCCC(=O)[O-]
REMARK SMILES IDX 10 1 11 2 12 3 13 4 14 5 15 6 16 7 17 8 18 9 19 10 20 11
REMARK SMILES IDX 9 12 8 13 7 14 6 15 5 16 4 17 3 18 2 19 1 20
REMARK H PARENT
REMARK INDEX MAP 4 1 6 2 8 3 10 4 12 5 14 6 16 7 18 8 20 9 2 10 1 11 3 12 5 13
REMARK INDEX MAP 7 14 9 15 11 16 13 17 15 18 17 19 19 20
ROOT
ATOM      1  C   UNL     1       8.394  32.604  18.907  1.00  0.00     0.000 C 
ENDROOT
BRANCH   1   2
ATOM      2  C   UNL     1       8.161  31.813  20.200  1.00  0.00     0.000 C 
BRANCH   2   3
ATOM      3  C   UNL     1       6.832  32.163  20.876  1.00  0.00     0.000 C 
BRANCH   3   4
ATOM      4  C   UNL     1       6.993  33.054  22.113  1.00  0.00     0.000 C 
BRANCH   4   5
ATOM      5  C   UNL     1       8.398  33.612  22.361  1.00  0.00     0.000 C 
BRANCH   5   6
ATOM      6  C   UNL     1       8.991  33.339  23.747  1.00  0.00     0.000 C 
BRANCH   6   7
ATOM      7  C   UNL     1      10.269  32.495  23.713  1.00  0.00     0.006 C 
BRANCH   7   8
ATOM      8  C   UNL     1      10.872  32.416  22.313  1.00  0.00     0.053 C 
BRANCH   8   9
ATOM      9  C   UNL     1      12.127  31.588  22.267  1.00  0.00     0.041 C 
ATOM     10  O   UNL     1      13.110  31.733  22.974  1.00  0.00    -0.550 OA
ATOM     11  O   UNL     1      12.077  30.602  21.354  1.00  0.00    -0.550 OA
ENDBRANCH   8   9
ENDBRANCH   7   8
ENDBRANCH   6   7
ENDBRANCH   5   6
ENDBRANCH   4   5
ENDBRANCH   3   4
ENDBRANCH   2   3
ENDBRANCH   1   2
BRANCH   1  12
ATOM     12  C   UNL     1       9.314  31.923  17.885  1.00  0.00     0.000 C 
BRANCH  12  13
ATOM     13  C   UNL     1       8.580  31.257  16.723  1.00  0.00    -0.000 C 
BRANCH  13  14
ATOM     14  C   UNL     1       8.090  29.841  17.041  1.00  0.00    -0.000 C 
BRANCH  14  15
ATOM     15  C   UNL     1       6.596  29.587  16.817  1.00  0.00    -0.000 C 
BRANCH  15  16
ATOM     16  C   UNL     1       5.650  30.250  17.824  1.00  0.00    -0.000 C 
BRANCH  16  17
ATOM     17  C   UNL     1       4.680  31.245  17.182  1.00  0.00    -0.000 C 
BRANCH  17  18
ATOM     18  C   UNL     1       4.837  32.641  17.789  1.00  0.00    -0.000 C 
BRANCH  18  19
ATOM     19  C   UNL     1       5.513  33.639  16.846  1.00  0.00    -0.003 C 
ATOM     20  C   UNL     1       4.533  34.550  16.122  1.00  0.00     0.004 C 
ENDBRANCH  18  19
ENDBRANCH  17  18
ENDBRANCH  16  17
ENDBRANCH  15  16
ENDBRANCH  14  15
ENDBRANCH  13  14
ENDBRANCH  12  13
ENDBRANCH   1  12
TORSDOF 16
ENDMDL
MODEL 2
REMARK VINA RESULT:    -5.973      3.726      6.653
REMARK INTER + INTRA:         -13.703
REMARK INTER:                 -11.398
REMARK INTRA:                  -2.305
REMARK UNBOUND:                -2.142
REMARK SMILES CCCCCCCCCCCCCCCCCC(=O)[O-]
REMARK SMILES IDX 10 1 11 2 12 3 13 4 14 5 15 6 16 7 17 8 18 9 19 10 20 11
REMARK SMILES IDX 9 12 8 13 7 14 6 15 5 16 4 17 3 18 2 19 1 20
REMARK H PARENT
REMARK INDEX MAP 4 1 6 2 8 3 10 4 12 5 14 6 16 7 18 8 20 9 2 10 1 11 3 12 5 13
REMARK INDEX MAP 7 14 9 15 11 16 13 17 15 18 17 19 19 20
ROOT
ATOM      1  C   UNL     1       8.634  31.300  15.622  1.00  0.00     0.000 C 
ENDROOT
BRANCH   1   2
ATOM      2  C   UNL     1       8.309  30.375  16.802  1.00  0.00     0.000 C 
BRANCH   2   3
ATOM      3  C   UNL     1       6.937  29.708  16.671  1.00  0.00     0.000 C 
BRANCH   3   4
ATOM      4  C   UNL     1       6.074  29.833  17.932  1.00  0.00     0.000 C 
BRANCH   4   5
ATOM      5  C   UNL     1       6.631  30.734  19.039  1.00  0.00     0.000 C 
BRANCH   5   6
ATOM      6  C   UNL     1       6.195  32.202  18.989  1.00  0.00     0.000 C 
BRANCH   6   7
ATOM      7  C   UNL     1       5.189  32.506  17.875  1.00  0.00     0.006 C 
BRANCH   7   8
ATOM      8  C   UNL     1       5.675  33.616  16.945  1.00  0.00     0.053 C 
BRANCH   8   9
ATOM      9  C   UNL     1       4.552  34.273  16.191  1.00  0.00     0.041 C 
ATOM     10  O   UNL     1       4.669  35.125  15.326  1.00  0.00    -0.550 OA
ATOM     11  O   UNL     1       3.338  33.811  16.540  1.00  0.00    -0.550 OA
ENDBRANCH   8   9
ENDBRANCH   7   8
ENDBRANCH   6   7
ENDBRANCH   5   6
ENDBRANCH   4   5
ENDBRANCH   3   4
ENDBRANCH   2   3
ENDBRANCH   1   2
BRANCH   1  12
ATOM     12  C   UNL     1       9.146  32.693  16.010  1.00  0.00     0.000 C 
BRANCH  12  13
ATOM     13  C   UNL     1       9.370  32.888  17.509  1.00  0.00    -0.000 C 
BRANCH  13  14
ATOM     14  C   UNL     1      10.842  32.801  17.921  1.00  0.00    -0.000 C 
BRANCH  14  15
ATOM     15  C   UNL     1      11.163  31.804  19.040  1.00  0.00    -0.000 C 
BRANCH  15  16
ATOM     16  C   UNL     1      10.141  31.731  20.179  1.00  0.00    -0.000 C 
BRANCH  16  17
ATOM     17  C   UNL     1      10.781  31.675  21.567  1.00  0.00    -0.000 C 
BRANCH  17  18
ATOM     18  C   UNL     1       9.981  32.499  22.579  1.00  0.00    -0.000 C 
BRANCH  18  19
ATOM     19  C   UNL     1       8.570  32.846  22.097  1.00  0.00    -0.003 C 
ATOM     20  C   UNL     1       8.039  34.154  22.664  1.00  0.00     0.004 C 
ENDBRANCH  18  19
ENDBRANCH  17  18
ENDBRANCH  16  17
ENDBRANCH  15  16
ENDBRANCH  14  15
ENDBRANCH  13  14
ENDBRANCH  12  13
ENDBRANCH   1  12
TORSDOF 16
ENDMDL
MODEL 3
REMARK VINA RESULT:    -5.776      2.446      5.655
REMARK INTER + INTRA:         -13.320
REMARK INTER:                 -11.575
REMARK INTRA:                  -1.745
REMARK UNBOUND:                -2.142
REMARK SMILES CCCCCCCCCCCCCCCCCC(=O)[O-]
REMARK SMILES IDX 10 1 11 2 12 3 13 4 14 5 15 6 16 7 17 8 18 9 19 10 20 11
REMARK SMILES IDX 9 12 8 13 7 14 6 15 5 16 4 17 3 18 2 19 1 20
REMARK H PARENT
REMARK INDEX MAP 4 1 6 2 8 3 10 4 12 5 14 6 16 7 18 8 20 9 2 10 1 11 3 12 5 13
REMARK INDEX MAP 7 14 9 15 11 16 13 17 15 18 17 19 19 20
ROOT
ATOM      1  C   UNL     1      10.101  31.451  21.791  1.00  0.00     0.000 C 
ENDROOT
BRANCH   1   2
ATOM      2  C   UNL     1       9.922  31.465  20.268  1.00  0.00     0.000 C 
BRANCH   2   3
ATOM      3  C   UNL     1      11.207  31.841  19.524  1.00  0.00     0.000 C 
BRANCH   3   4
ATOM      4  C   UNL     1      11.102  31.679  18.004  1.00  0.00     0.000 C 
BRANCH   4   5
ATOM      5  C   UNL     1      10.501  32.865  17.242  1.00  0.00     0.000 C 
BRANCH   5   6
ATOM      6  C   UNL     1       9.009  33.122  17.474  1.00  0.00     0.000 C 
BRANCH   6   7
ATOM      7  C   UNL     1       8.104  32.488  16.415  1.00  0.00     0.006 C 
BRANCH   7   8
ATOM      8  C   UNL     1       8.551  31.076  16.043  1.00  0.00     0.053 C 
BRANCH   8   9
ATOM      9  C   UNL     1       7.742  30.011  16.732  1.00  0.00     0.041 C 
ATOM     10  O   UNL     1       6.743  29.470  16.291  1.00  0.00    -0.550 OA
ATOM     11  O   UNL     1       8.241  29.659  17.931  1.00  0.00    -0.550 OA
ENDBRANCH   8   9
ENDBRANCH   7   8
ENDBRANCH   6   7
ENDBRANCH   5   6
ENDBRANCH   4   5
ENDBRANCH   3   4
ENDBRANCH   2   3
ENDBRANCH   1   2
BRANCH   1  12
ATOM     12  C   UNL     1      10.105  32.832  22.458  1.00  0.00     0.000 C 
BRANCH  12  13
ATOM     13  C   UNL     1       8.835  33.155  23.244  1.00  0.00    -0.000 C 
BRANCH  13  14
ATOM     14  C   UNL     1       7.747  33.823  22.397  1.00  0.00    -0.000 C 
BRANCH  14  15
ATOM     15  C   UNL     1       6.303  33.475  22.774  1.00  0.00    -0.000 C 
BRANCH  15  16
ATOM     16  C   UNL     1       5.610  32.448  21.873  1.00  0.00    -0.000 C 
BRANCH  16  17
ATOM     17  C   UNL     1       6.394  32.132  20.597  1.00  0.00    -0.000 C 
BRANCH  17  18
ATOM     18  C   UNL     1       5.533  31.355  19.597  1.00  0.00    -0.000 C 
BRANCH  18  19
ATOM     19  C   UNL     1       5.160  32.170  18.357  1.00  0.00    -0.003 C 
ATOM     20  C   UNL     1       4.258  31.422  17.387  1.00  0.00     0.004 C 
ENDBRANCH  18  19
ENDBRANCH  17  18
ENDBRANCH  16  17
ENDBRANCH  15  16
ENDBRANCH  14  15
ENDBRANCH  13  14
ENDBRANCH  12  13
ENDBRANCH   1  12
TORSDOF 16
ENDMDL
MODEL 4
REMARK VINA RESULT:    -5.720      2.575      3.930
REMARK INTER + INTRA:         -13.212
REMARK INTER:                 -11.449
REMARK INTRA:                  -1.764
REMARK UNBOUND:                -2.142
REMARK SMILES CCCCCCCCCCCCCCCCCC(=O)[O-]
REMARK SMILES IDX 10 1 11 2 12 3 13 4 14 5 15 6 16 7 17 8 18 9 19 10 20 11
REMARK SMILES IDX 9 12 8 13 7 14 6 15 5 16 4 17 3 18 2 19 1 20
REMARK H PARENT
REMARK INDEX MAP 4 1 6 2 8 3 10 4 12 5 14 6 16 7 18 8 20 9 2 10 1 11 3 12 5 13
REMARK INDEX MAP 7 14 9 15 11 16 13 17 15 18 17 19 19 20
ROOT
ATOM      1  C   UNL     1       7.898  32.342  20.262  1.00  0.00     0.000 C 
ENDROOT
BRANCH   1   2
ATOM      2  C   UNL     1       8.960  31.235  20.271  1.00  0.00     0.000 C 
BRANCH   2   3
ATOM      3  C   UNL     1      10.383  31.782  20.426  1.00  0.00     0.000 C 
BRANCH   3   4
ATOM      4  C   UNL     1      10.989  31.521  21.808  1.00  0.00     0.000 C 
BRANCH   4   5
ATOM      5  C   UNL     1      10.364  32.297  22.973  1.00  0.00     0.000 C 
BRANCH   5   6
ATOM      6  C   UNL     1      11.165  32.301  24.279  1.00  0.00     0.000 C 
BRANCH   6   7
ATOM      7  C   UNL     1      10.408  32.912  25.462  1.00  0.00     0.006 C 
BRANCH   7   8
ATOM      8  C   UNL     1      11.333  33.244  26.630  1.00  0.00     0.053 C 
BRANCH   8   9
ATOM      9  C   UNL     1      11.627  34.715  26.738  1.00  0.00     0.041 C 
ATOM     10  O   UNL     1      12.708  35.215  26.998  1.00  0.00    -0.550 OA
ATOM     11  O   UNL     1      10.555  35.489  26.488  1.00  0.00    -0.550 OA
ENDBRANCH   8   9
ENDBRANCH   7   8
ENDBRANCH   6   7
ENDBRANCH   5   6
ENDBRANCH   4   5
ENDBRANCH   3   4
ENDBRANCH   2   3
ENDBRANCH   1   2
BRANCH   1  12
ATOM     12  C   UNL     1       6.445  31.849  20.283  1.00  0.00     0.000 C 
BRANCH  12  13
ATOM     13  C   UNL     1       5.705  32.013  18.957  1.00  0.00    -0.000 C 
BRANCH  13  14
ATOM     14  C   UNL     1       5.110  30.705  18.424  1.00  0.00    -0.000 C 
BRANCH  14  15
ATOM     15  C   UNL     1       6.118  29.596  18.107  1.00  0.00    -0.000 C 
BRANCH  15  16
ATOM     16  C   UNL     1       6.838  29.717  16.760  1.00  0.00    -0.000 C 
BRANCH  16  17
ATOM     17  C   UNL     1       8.295  30.167  16.888  1.00  0.00    -0.000 C 
BRANCH  17  18
ATOM     18  C   UNL     1       8.605  31.319  15.929  1.00  0.00    -0.000 C 
BRANCH  18  19
ATOM     19  C   UNL     1       8.930  32.632  16.645  1.00  0.00    -0.003 C 
ATOM     20  C   UNL     1      10.420  32.863  16.845  1.00  0.00     0.004 C 
ENDBRANCH  18  19
ENDBRANCH  17  18
ENDBRANCH  16  17
ENDBRANCH  15  16
ENDBRANCH  14  15
ENDBRANCH  13  14
ENDBRANCH  12  13
ENDBRANCH   1  12
TORSDOF 16
ENDMDL
MODEL 5
REMARK VINA RESULT:    -5.686      2.740      5.027
REMARK INTER + INTRA:         -13.148
REMARK INTER:                 -11.443
REMARK INTRA:                  -1.704
REMARK UNBOUND:                -2.142
REMARK SMILES CCCCCCCCCCCCCCCCCC(=O)[O-]
REMARK SMILES IDX 10 1 11 2 12 3 13 4 14 5 15 6 16 7 17 8 18 9 19 10 20 11
REMARK SMILES IDX 9 12 8 13 7 14 6 15 5 16 4 17 3 18 2 19 1 20
REMARK H PARENT
REMARK INDEX MAP 4 1 6 2 8 3 10 4 12 5 14 6 16 7 18 8 20 9 2 10 1 11 3 12 5 13
REMARK INDEX MAP 7 14 9 15 11 16 13 17 15 18 17 19 19 20
ROOT
ATOM      1  C   UNL     1       8.970  33.525  23.280  1.00  0.00     0.000 C 
ENDROOT
BRANCH   1   2
ATOM      2  C   UNL     1      10.145  32.568  23.045  1.00  0.00     0.000 C 
BRANCH   2   3
ATOM      3  C   UNL     1      10.028  31.800  21.724  1.00  0.00     0.000 C 
BRANCH   3   4
ATOM      4  C   UNL     1      11.343  31.155  21.274  1.00  0.00     0.000 C 
BRANCH   4   5
ATOM      5  C   UNL     1      11.817  31.511  19.861  1.00  0.00     0.000 C 
BRANCH   5   6
ATOM      6  C   UNL     1      10.769  32.152  18.947  1.00  0.00     0.000 C 
BRANCH   6   7
ATOM      7  C   UNL     1      10.071  31.154  18.018  1.00  0.00     0.006 C 
BRANCH   7   8
ATOM      8  C   UNL     1       8.864  31.767  17.313  1.00  0.00     0.053 C 
BRANCH   8   9
ATOM      9  C   UNL     1       8.612  31.161  15.960  1.00  0.00     0.041 C 
ATOM     10  O   UNL     1       8.958  31.626  14.888  1.00  0.00    -0.550 OA
ATOM     11  O   UNL     1       7.959  29.986  16.020  1.00  0.00    -0.550 OA
ENDBRANCH   8   9
ENDBRANCH   7   8
ENDBRANCH   6   7
ENDBRANCH   5   6
ENDBRANCH   4   5
ENDBRANCH   3   4
ENDBRANCH   2   3
ENDBRANCH   1   2
BRANCH   1  12
ATOM     12  C   UNL     1       7.859  33.462  22.223  1.00  0.00     0.000 C 
BRANCH  12  13
ATOM     13  C   UNL     1       6.445  33.408  22.798  1.00  0.00    -0.000 C 
BRANCH  13  14
ATOM     14  C   UNL     1       5.489  32.532  21.983  1.00  0.00    -0.000 C 
BRANCH  14  15
ATOM     15  C   UNL     1       6.059  31.955  20.683  1.00  0.00    -0.000 C 
BRANCH  15  16
ATOM     16  C   UNL     1       5.102  31.077  19.870  1.00  0.00    -0.000 C 
BRANCH  16  17
ATOM     17  C   UNL     1       5.650  30.695  18.493  1.00  0.00    -0.000 C 
BRANCH  17  18
ATOM     18  C   UNL     1       4.763  31.244  17.373  1.00  0.00    -0.000 C 
BRANCH  18  19
ATOM     19  C   UNL     1       4.530  32.754  17.469  1.00  0.00    -0.003 C 
ATOM     20  C   UNL     1       5.633  33.581  16.826  1.00  0.00     0.004 C 
ENDBRANCH  18  19
ENDBRANCH  17  18
ENDBRANCH  16  17
ENDBRANCH  15  16
ENDBRANCH  14  15
ENDBRANCH  13  14
ENDBRANCH  12  13
ENDBRANCH   1  12
TORSDOF 16
ENDMDL
MODEL 6
REMARK VINA RESULT:    -5.673      3.147      8.391
REMARK INTER + INTRA:         -13.122
REMARK INTER:                 -11.731
REMARK INTRA:                  -1.391
REMARK UNBOUND:                -2.142
REMARK SMILES CCCCCCCCCCCCCCCCCC(=O)[O-]
REMARK SMILES IDX 10 1 11 2 12 3 13 4 14 5 15 6 16 7 17 8 18 9 19 10 20 11
REMARK SMILES IDX 9 12 8 13 7 14 6 15 5 16 4 17 3 18 2 19 1 20
REMARK H PARENT
REMARK INDEX MAP 4 1 6 2 8 3 10 4 12 5 14 6 16 7 18 8 20 9 2 10 1 11 3 12 5 13
REMARK INDEX MAP 7 14 9 15 11 16 13 17 15 18 17 19 19 20
ROOT
ATOM      1  C   UNL     1      10.087  31.460  21.566  1.00  0.00     0.000 C 
ENDROOT
BRANCH   1   2
ATOM      2  C   UNL     1       9.751  31.564  20.072  1.00  0.00     0.000 C 
BRANCH   2   3
ATOM      3  C   UNL     1      10.984  31.842  19.207  1.00  0.00     0.000 C 
BRANCH   3   4
ATOM      4  C   UNL     1      10.644  32.418  17.828  1.00  0.00     0.000 C 
BRANCH   4   5
ATOM      5  C   UNL     1       9.290  33.126  17.711  1.00  0.00     0.000 C 
BRANCH   5   6
ATOM      6  C   UNL     1       8.338  32.574  16.645  1.00  0.00     0.000 C 
BRANCH   6   7
ATOM      7  C   UNL     1       7.059  31.961  17.222  1.00  0.00     0.006 C 
BRANCH   7   8
ATOM      8  C   UNL     1       6.932  30.475  16.895  1.00  0.00     0.053 C 
BRANCH   8   9
ATOM      9  C   UNL     1       7.640  29.598  17.891  1.00  0.00     0.041 C 
ATOM     10  O   UNL     1       7.179  29.189  18.943  1.00  0.00    -0.550 OA
ATOM     11  O   UNL     1       8.883  29.258  17.507  1.00  0.00    -0.550 OA
ENDBRANCH   8   9
ENDBRANCH   7   8
ENDBRANCH   6   7
ENDBRANCH   5   6
ENDBRANCH   4   5
ENDBRANCH   3   4
ENDBRANCH   2   3
ENDBRANCH   1   2
BRANCH   1  12
ATOM     12  C   UNL     1      11.563  31.682  21.917  1.00  0.00     0.000 C 
BRANCH  12  13
ATOM     13  C   UNL     1      11.809  32.114  23.361  1.00  0.00    -0.000 C 
BRANCH  13  14
ATOM     14  C   UNL     1      10.522  32.289  24.173  1.00  0.00    -0.000 C 
BRANCH  14  15
ATOM     15  C   UNL     1      10.681  32.978  25.532  1.00  0.00    -0.000 C 
BRANCH  15  16
ATOM     16  C   UNL     1      12.112  33.370  25.916  1.00  0.00    -0.000 C 
BRANCH  16  17
ATOM     17  C   UNL     1      12.187  34.651  26.750  1.00  0.00    -0.000 C 
BRANCH  17  18
ATOM     18  C   UNL     1      10.795  35.101  27.201  1.00  0.00    -0.000 C 
BRANCH  18  19
ATOM     19  C   UNL     1      10.719  35.426  28.695  1.00  0.00    -0.003 C 
ATOM     20  C   UNL     1      10.583  34.196  29.579  1.00  0.00     0.004 C 
ENDBRANCH  18  19
ENDBRANCH  17  18
ENDBRANCH  16  17
ENDBRANCH  15  16
ENDBRANCH  14  15
ENDBRANCH  13  14
ENDBRANCH  12  13
ENDBRANCH   1  12
TORSDOF 16
ENDMDL
MODEL 7
REMARK VINA RESULT:    -5.664      3.036      8.110
REMARK INTER + INTRA:         -13.104
REMARK INTER:                 -11.856
REMARK INTRA:                  -1.248
REMARK UNBOUND:                -2.142
REMARK SMILES CCCCCCCCCCCCCCCCCC(=O)[O-]
REMARK SMILES IDX 10 1 11 2 12 3 13 4 14 5 15 6 16 7 17 8 18 9 19 10 20 11
REMARK SMILES IDX 9 12 8 13 7 14 6 15 5 16 4 17 3 18 2 19 1 20
REMARK H PARENT
REMARK INDEX MAP 4 1 6 2 8 3 10 4 12 5 14 6 16 7 18 8 20 9 2 10 1 11 3 12 5 13
REMARK INDEX MAP 7 14 9 15 11 16 13 17 15 18 17 19 19 20
ROOT
ATOM      1  C   UNL     1      11.089  31.762  19.852  1.00  0.00     0.000 C 
ENDROOT
BRANCH   1   2
ATOM      2  C   UNL     1       9.738  31.893  19.137  1.00  0.00     0.000 C 
BRANCH   2   3
ATOM      3  C   UNL     1       8.566  31.402  19.991  1.00  0.00     0.000 C 
BRANCH   3   4
ATOM      4  C   UNL     1       7.277  32.203  19.776  1.00  0.00     0.000 C 
BRANCH   4   5
ATOM      5  C   UNL     1       5.967  31.429  19.958  1.00  0.00     0.000 C 
BRANCH   5   6
ATOM      6  C   UNL     1       4.977  31.507  18.792  1.00  0.00     0.000 C 
BRANCH   6   7
ATOM      7  C   UNL     1       5.632  31.343  17.417  1.00  0.00     0.006 C 
BRANCH   7   8
ATOM      8  C   UNL     1       5.884  29.878  17.068  1.00  0.00     0.053 C 
BRANCH   8   9
ATOM      9  C   UNL     1       7.348  29.548  16.972  1.00  0.00     0.041 C 
ATOM     10  O   UNL     1       8.123  29.956  16.124  1.00  0.00    -0.550 OA
ATOM     11  O   UNL     1       7.774  28.740  17.960  1.00  0.00    -0.550 OA
ENDBRANCH   8   9
ENDBRANCH   7   8
ENDBRANCH   6   7
ENDBRANCH   5   6
ENDBRANCH   4   5
ENDBRANCH   3   4
ENDBRANCH   2   3
ENDBRANCH   1   2
BRANCH   1  12
ATOM     12  C   UNL     1      11.002  31.459  21.353  1.00  0.00     0.000 C 
BRANCH  12  13
ATOM     13  C   UNL     1      12.344  31.497  22.083  1.00  0.00    -0.000 C 
BRANCH  13  14
ATOM     14  C   UNL     1      12.254  32.084  23.495  1.00  0.00    -0.000 C 
BRANCH  14  15
ATOM     15  C   UNL     1      10.838  32.295  24.039  1.00  0.00    -0.000 C 
BRANCH  15  16
ATOM     16  C   UNL     1      10.749  32.889  25.449  1.00  0.00    -0.000 C 
BRANCH  16  17
ATOM     17  C   UNL     1      12.101  33.345  26.002  1.00  0.00    -0.000 C 
BRANCH  17  18
ATOM     18  C   UNL     1      12.109  33.323  27.533  1.00  0.00    -0.000 C 
BRANCH  18  19
ATOM     19  C   UNL     1      10.721  33.113  28.142  1.00  0.00    -0.003 C 
ATOM     20  C   UNL     1      10.549  33.770  29.504  1.00  0.00     0.004 C 
ENDBRANCH  18  19
ENDBRANCH  17  18
ENDBRANCH  16  17
ENDBRANCH  15  16
ENDBRANCH  14  15
ENDBRANCH  13  14
ENDBRANCH  12  13
ENDBRANCH   1  12
TORSDOF 16
ENDMDL
MODEL 8
REMARK VINA RESULT:    -5.661      3.347      4.896
REMARK INTER + INTRA:         -13.098
REMARK INTER:                 -11.838
REMARK INTRA:                  -1.260
REMARK UNBOUND:                -2.142
REMARK SMILES CCCCCCCCCCCCCCCCCC(=O)[O-]
REMARK SMILES IDX 10 1 11 2 12 3 13 4 14 5 15 6 16 7 17 8 18 9 19 10 20 11
REMARK SMILES IDX 9 12 8 13 7 14 6 15 5 16 4 17 3 18 2 19 1 20
REMARK H PARENT
REMARK INDEX MAP 4 1 6 2 8 3 10 4 12 5 14 6 16 7 18 8 20 9 2 10 1 11 3 12 5 13
REMARK INDEX MAP 7 14 9 15 11 16 13 17 15 18 17 19 19 20
ROOT
ATOM      1  C   UNL     1      10.336  31.452  21.308  1.00  0.00     0.000 C 
ENDROOT
BRANCH   1   2
ATOM      2  C   UNL     1      11.787  31.475  21.806  1.00  0.00     0.000 C 
BRANCH   2   3
ATOM      3  C   UNL     1      11.914  32.020  23.232  1.00  0.00     0.000 C 
BRANCH   3   4
ATOM      4  C   UNL     1      10.567  32.360  23.878  1.00  0.00     0.000 C 
BRANCH   4   5
ATOM      5  C   UNL     1      10.625  32.883  25.317  1.00  0.00     0.000 C 
BRANCH   5   6
ATOM      6  C   UNL     1      12.007  33.322  25.813  1.00  0.00     0.000 C 
BRANCH   6   7
ATOM      7  C   UNL     1      11.955  34.343  26.953  1.00  0.00     0.006 C 
BRANCH   7   8
ATOM      8  C   UNL     1      12.675  33.849  28.205  1.00  0.00     0.053 C 
BRANCH   8   9
ATOM      9  C   UNL     1      11.829  33.961  29.444  1.00  0.00     0.041 C 
ATOM     10  O   UNL     1      10.613  34.037  29.479  1.00  0.00    -0.550 OA
ATOM     11  O   UNL     1      12.549  33.946  30.580  1.00  0.00    -0.550 OA
ENDBRANCH   8   9
ENDBRANCH   7   8
ENDBRANCH   6   7
ENDBRANCH   5   6
ENDBRANCH   4   5
ENDBRANCH   3   4
ENDBRANCH   2   3
ENDBRANCH   1   2
BRANCH   1  12
ATOM     12  C   UNL     1      10.169  31.550  19.787  1.00  0.00     0.000 C 
BRANCH  12  13
ATOM     13  C   UNL     1       8.845  32.165  19.337  1.00  0.00    -0.000 C 
BRANCH  13  14
ATOM     14  C   UNL     1       7.721  32.012  20.366  1.00  0.00    -0.000 C 
BRANCH  14  15
ATOM     15  C   UNL     1       6.361  31.579  19.807  1.00  0.00    -0.000 C 
BRANCH  15  16
ATOM     16  C   UNL     1       6.013  32.115  18.414  1.00  0.00    -0.000 C 
BRANCH  16  17
ATOM     17  C   UNL     1       4.998  31.247  17.666  1.00  0.00    -0.000 C 
BRANCH  17  18
ATOM     18  C   UNL     1       5.550  29.842  17.415  1.00  0.00    -0.000 C 
BRANCH  18  19
ATOM     19  C   UNL     1       6.873  29.839  16.646  1.00  0.00    -0.003 C 
ATOM     20  C   UNL     1       8.007  29.151  17.392  1.00  0.00     0.004 C 
ENDBRANCH  18  19
ENDBRANCH  17  18
ENDBRANCH  16  17
ENDBRANCH  15  16
ENDBRANCH  14  15
ENDBRANCH  13  14
ENDBRANCH  12  13
ENDBRANCH   1  12
TORSDOF 16
ENDMDL
MODEL 9
REMARK VINA RESULT:    -5.638      4.137      5.525
REMARK INTER + INTRA:         -13.055
REMARK INTER:                 -12.069
REMARK INTRA:                  -0.986
REMARK UNBOUND:                -2.142
REMARK SMILES CCCCCCCCCCCCCCCCCC(=O)[O-]
REMARK SMILES IDX 10 1 11 2 12 3 13 4 14 5 15 6 16 7 17 8 18 9 19 10 20 11
REMARK SMILES IDX 9 12 8 13 7 14 6 15 5 16 4 17 3 18 2 19 1 20
REMARK H PARENT
REMARK INDEX MAP 4 1 6 2 8 3 10 4 12 5 14 6 16 7 18 8 20 9 2 10 1 11 3 12 5 13
REMARK INDEX MAP 7 14 9 15 11 16 13 17 15 18 17 19 19 20
ROOT
ATOM      1  C   UNL     1       9.985  32.555  22.431  1.00  0.00     0.000 C 
ENDROOT
BRANCH   1   2
ATOM      2  C   UNL     1      10.976  32.161  23.535  1.00  0.00     0.000 C 
BRANCH   2   3
ATOM      3  C   UNL     1      10.524  32.617  24.925  1.00  0.00     0.000 C 
BRANCH   3   4
ATOM      4  C   UNL     1      11.645  33.257  25.751  1.00  0.00     0.000 C 
BRANCH   4   5
ATOM      5  C   UNL     1      11.244  33.787  27.132  1.00  0.00     0.000 C 
BRANCH   5   6
ATOM      6  C   UNL     1      11.624  35.242  27.425  1.00  0.00     0.000 C 
BRANCH   6   7
ATOM      7  C   UNL     1      12.683  35.391  28.521  1.00  0.00     0.006 C 
BRANCH   7   8
ATOM      8  C   UNL     1      13.052  34.051  29.154  1.00  0.00     0.053 C 
BRANCH   8   9
ATOM      9  C   UNL     1      13.279  34.152  30.637  1.00  0.00     0.041 C 
ATOM     10  O   UNL     1      12.427  34.048  31.503  1.00  0.00    -0.550 OA
ATOM     11  O   UNL     1      14.568  34.354  30.963  1.00  0.00    -0.550 OA
ENDBRANCH   8   9
ENDBRANCH   7   8
ENDBRANCH   6   7
ENDBRANCH   5   6
ENDBRANCH   4   5
ENDBRANCH   3   4
ENDBRANCH   2   3
ENDBRANCH   1   2
BRANCH   1  12
ATOM     12  C   UNL     1      10.016  31.665  21.182  1.00  0.00     0.000 C 
BRANCH  12  13
ATOM     13  C   UNL     1       8.731  31.693  20.357  1.00  0.00    -0.000 C 
BRANCH  13  14
ATOM     14  C   UNL     1       8.957  32.073  18.890  1.00  0.00    -0.000 C 
BRANCH  14  15
ATOM     15  C   UNL     1       9.522  30.965  17.994  1.00  0.00    -0.000 C 
BRANCH  15  16
ATOM     16  C   UNL     1       8.569  30.427  16.922  1.00  0.00    -0.000 C 
BRANCH  16  17
ATOM     17  C   UNL     1       7.506  29.475  17.475  1.00  0.00    -0.000 C 
BRANCH  17  18
ATOM     18  C   UNL     1       6.100  29.915  17.060  1.00  0.00    -0.000 C 
BRANCH  18  19
ATOM     19  C   UNL     1       5.369  30.710  18.145  1.00  0.00    -0.003 C 
ATOM     20  C   UNL     1       5.354  32.210  17.893  1.00  0.00     0.004 C 
ENDBRANCH  18  19
ENDBRANCH  17  18
ENDBRANCH  16  17
ENDBRANCH  15  16
ENDBRANCH  14  15
ENDBRANCH  13  14
ENDBRANCH  12  13
ENDBRANCH   1  12
TORSDOF 16
ENDMDL
MODEL 10
REMARK VINA RESULT:    -5.631      3.007      4.276
REMARK INTER + INTRA:         -13.041
REMARK INTER:                 -11.802
REMARK INTRA:                  -1.239
REMARK UNBOUND:                -2.142
REMARK SMILES CCCCCCCCCCCCCCCCCC(=O)[O-]
REMARK SMILES IDX 10 1 11 2 12 3 13 4 14 5 15 6 16 7 17 8 18 9 19 10 20 11
REMARK SMILES IDX 9 12 8 13 7 14 6 15 5 16 4 17 3 18 2 19 1 20
REMARK H PARENT
REMARK INDEX MAP 4 1 6 2 8 3 10 4 12 5 14 6 16 7 18 8 20 9 2 10 1 11 3 12 5 13
REMARK INDEX MAP 7 14 9 15 11 16 13 17 15 18 17 19 19 20
ROOT
ATOM      1  C   UNL     1       9.760  31.535  21.075  1.00  0.00     0.000 C 
ENDROOT
BRANCH   1   2
ATOM      2  C   UNL     1      11.292  31.452  21.064  1.00  0.00     0.000 C 
BRANCH   2   3
ATOM      3  C   UNL     1      11.912  31.783  22.425  1.00  0.00     0.000 C 
BRANCH   3   4
ATOM      4  C   UNL     1      10.884  32.225  23.472  1.00  0.00     0.000 C 
BRANCH   4   5
ATOM      5  C   UNL     1      11.443  32.575  24.855  1.00  0.00     0.000 C 
BRANCH   5   6
ATOM      6  C   UNL     1      10.427  33.105  25.872  1.00  0.00     0.000 C 
BRANCH   6   7
ATOM      7  C   UNL     1      11.059  33.917  27.006  1.00  0.00     0.006 C 
BRANCH   7   8
ATOM      8  C   UNL     1      12.308  34.669  26.551  1.00  0.00     0.053 C 
BRANCH   8   9
ATOM      9  C   UNL     1      13.026  35.343  27.688  1.00  0.00     0.041 C 
ATOM     10  O   UNL     1      13.588  36.424  27.643  1.00  0.00    -0.550 OA
ATOM     11  O   UNL     1      12.981  34.639  28.833  1.00  0.00    -0.550 OA
ENDBRANCH   8   9
ENDBRANCH   7   8
ENDBRANCH   6   7
ENDBRANCH   5   6
ENDBRANCH   4   5
ENDBRANCH   3   4
ENDBRANCH   2   3
ENDBRANCH   1   2
BRANCH   1  12
ATOM     12  C   UNL     1       9.114  31.811  19.711  1.00  0.00     0.000 C 
BRANCH  12  13
ATOM     13  C   UNL     1       9.970  31.400  18.514  1.00  0.00    -0.000 C 
BRANCH  13  14
ATOM     14  C   UNL     1       9.583  32.113  17.215  1.00  0.00    -0.000 C 
BRANCH  14  15
ATOM     15  C   UNL     1       8.358  31.551  16.487  1.00  0.00    -0.000 C 
BRANCH  15  16
ATOM     16  C   UNL     1       8.079  30.060  16.707  1.00  0.00    -0.000 C 
BRANCH  16  17
ATOM     17  C   UNL     1       6.587  29.723  16.761  1.00  0.00    -0.000 C 
BRANCH  17  18
ATOM     18  C   UNL     1       6.059  29.778  18.196  1.00  0.00    -0.000 C 
BRANCH  18  19
ATOM     19  C   UNL     1       5.189  31.006  18.475  1.00  0.00    -0.003 C 
ATOM     20  C   UNL     1       5.560  31.735  19.758  1.00  0.00     0.004 C 
ENDBRANCH  18  19
ENDBRANCH  17  18
ENDBRANCH  16  17
ENDBRANCH  15  16
ENDBRANCH  14  15
ENDBRANCH  13  14
ENDBRANCH  12  13
ENDBRANCH   1  12
TORSDOF 16
ENDMDL
MODEL 11
REMARK VINA RESULT:    -5.625      2.775      4.272
REMARK INTER + INTRA:         -13.029
REMARK INTER:                 -11.464
REMARK INTRA:                  -1.565
REMARK UNBOUND:                -2.142
REMARK SMILES CCCCCCCCCCCCCCCCCC(=O)[O-]
REMARK SMILES IDX 10 1 11 2 12 3 13 4 14 5 15 6 16 7 17 8 18 9 19 10 20 11
REMARK SMILES IDX 9 12 8 13 7 14 6 15 5 16 4 17 3 18 2 19 1 20
REMARK H PARENT
REMARK INDEX MAP 4 1 6 2 8 3 10 4 12 5 14 6 16 7 18 8 20 9 2 10 1 11 3 12 5 13
REMARK INDEX MAP 7 14 9 15 11 16 13 17 15 18 17 19 19 20
ROOT
ATOM      1  C   UNL     1       8.840  31.757  21.023  1.00  0.00     0.000 C 
ENDROOT
BRANCH   1   2
ATOM      2  C   UNL     1      10.217  31.604  20.365  1.00  0.00     0.000 C 
BRANCH   2   3
ATOM      3  C   UNL     1      11.332  31.342  21.382  1.00  0.00     0.000 C 
BRANCH   3   4
ATOM      4  C   UNL     1      11.124  32.065  22.717  1.00  0.00     0.000 C 
BRANCH   4   5
ATOM      5  C   UNL     1      12.377  32.263  23.576  1.00  0.00     0.000 C 
BRANCH   5   6
ATOM      6  C   UNL     1      12.130  32.592  25.052  1.00  0.00     0.000 C 
BRANCH   6   7
ATOM      7  C   UNL     1      10.656  32.835  25.389  1.00  0.00     0.006 C 
BRANCH   7   8
ATOM      8  C   UNL     1      10.470  33.390  26.800  1.00  0.00     0.053 C 
BRANCH   8   9
ATOM      9  C   UNL     1      10.645  34.882  26.864  1.00  0.00     0.041 C 
ATOM     10  O   UNL     1      10.024  35.707  26.216  1.00  0.00    -0.550 OA
ATOM     11  O   UNL     1      11.574  35.268  27.757  1.00  0.00    -0.550 OA
ENDBRANCH   8   9
ENDBRANCH   7   8
ENDBRANCH   6   7
ENDBRANCH   5   6
ENDBRANCH   4   5
ENDBRANCH   3   4
ENDBRANCH   2   3
ENDBRANCH   1   2
BRANCH   1  12
ATOM     12  C   UNL     1       7.727  32.256  20.092  1.00  0.00     0.000 C 
BRANCH  12  13
ATOM     13  C   UNL     1       6.321  32.158  20.681  1.00  0.00    -0.000 C 
BRANCH  13  14
ATOM     14  C   UNL     1       5.295  31.564  19.712  1.00  0.00    -0.000 C 
BRANCH  14  15
ATOM     15  C   UNL     1       5.729  30.290  18.979  1.00  0.00    -0.000 C 
BRANCH  15  16
ATOM     16  C   UNL     1       5.397  30.237  17.484  1.00  0.00    -0.000 C 
BRANCH  16  17
ATOM     17  C   UNL     1       6.546  29.707  16.624  1.00  0.00    -0.000 C 
BRANCH  17  18
ATOM     18  C   UNL     1       7.773  29.381  17.480  1.00  0.00    -0.000 C 
BRANCH  18  19
ATOM     19  C   UNL     1       8.964  30.302  17.207  1.00  0.00    -0.003 C 
ATOM     20  C   UNL     1       8.590  31.576  16.464  1.00  0.00     0.004 C 
ENDBRANCH  18  19
ENDBRANCH  17  18
ENDBRANCH  16  17
ENDBRANCH  15  16
ENDBRANCH  14  15
ENDBRANCH  13  14
ENDBRANCH  12  13
ENDBRANCH   1  12
TORSDOF 16
ENDMDL
MODEL 12
REMARK VINA RESULT:    -5.622      2.848      4.155
REMARK INTER + INTRA:         -13.023
REMARK INTER:                 -11.254
REMARK INTRA:                  -1.769
REMARK UNBOUND:                -2.142
REMARK SMILES CCCCCCCCCCCCCCCCCC(=O)[O-]
REMARK SMILES IDX 10 1 11 2 12 3 13 4 14 5 15 6 16 7 17 8 18 9 19 10 20 11
REMARK SMILES IDX 9 12 8 13 7 14 6 15 5 16 4 17 3 18 2 19 1 20
REMARK H PARENT
REMARK INDEX MAP 4 1 6 2 8 3 10 4 12 5 14 6 16 7 18 8 20 9 2 10 1 11 3 12 5 13
REMARK INDEX MAP 7 14 9 15 11 16 13 17 15 18 17 19 19 20
ROOT
ATOM      1  C   UNL     1      11.035  31.781  19.526  1.00  0.00     0.000 C 
ENDROOT
BRANCH   1   2
ATOM      2  C   UNL     1       9.894  31.820  20.551  1.00  0.00     0.000 C 
BRANCH   2   3
ATOM      3  C   UNL     1      10.321  31.311  21.931  1.00  0.00     0.000 C 
BRANCH   3   4
ATOM      4  C   UNL     1      11.703  31.811  22.366  1.00  0.00     0.000 C 
BRANCH   4   5
ATOM      5  C   UNL     1      11.854  32.163  23.849  1.00  0.00     0.000 C 
BRANCH   5   6
ATOM      6  C   UNL     1      10.560  32.529  24.584  1.00  0.00     0.000 C 
BRANCH   6   7
ATOM      7  C   UNL     1      10.792  33.266  25.906  1.00  0.00     0.006 C 
BRANCH   7   8
ATOM      8  C   UNL     1      12.268  33.579  26.141  1.00  0.00     0.053 C 
BRANCH   8   9
ATOM      9  C   UNL     1      12.512  34.274  27.453  1.00  0.00     0.041 C 
ATOM     10  O   UNL     1      12.290  33.815  28.561  1.00  0.00    -0.550 OA
ATOM     11  O   UNL     1      13.045  35.500  27.311  1.00  0.00    -0.550 OA
ENDBRANCH   8   9
ENDBRANCH   7   8
ENDBRANCH   6   7
ENDBRANCH   5   6
ENDBRANCH   4   5
ENDBRANCH   3   4
ENDBRANCH   2   3
ENDBRANCH   1   2
BRANCH   1  12
ATOM     12  C   UNL     1      10.603  31.500  18.082  1.00  0.00     0.000 C 
BRANCH  12  13
ATOM     13  C   UNL     1      10.512  32.742  17.198  1.00  0.00    -0.000 C 
BRANCH  13  14
ATOM     14  C   UNL     1       9.124  32.956  16.587  1.00  0.00    -0.000 C 
BRANCH  14  15
ATOM     15  C   UNL     1       8.040  33.448  17.553  1.00  0.00    -0.000 C 
BRANCH  15  16
ATOM     16  C   UNL     1       6.750  32.622  17.580  1.00  0.00    -0.000 C 
BRANCH  16  17
ATOM     17  C   UNL     1       6.536  31.871  18.897  1.00  0.00    -0.000 C 
BRANCH  17  18
ATOM     18  C   UNL     1       6.701  30.362  18.707  1.00  0.00    -0.000 C 
BRANCH  18  19
ATOM     19  C   UNL     1       7.066  29.968  17.273  1.00  0.00    -0.003 C 
ATOM     20  C   UNL     1       8.195  28.951  17.191  1.00  0.00     0.004 C 
ENDBRANCH  18  19
ENDBRANCH  17  18
ENDBRANCH  16  17
ENDBRANCH  15  16
ENDBRANCH  14  15
ENDBRANCH  13  14
ENDBRANCH  12  13
ENDBRANCH   1  12
TORSDOF 16
ENDMDL
MODEL 13
REMARK VINA RESULT:    -5.610      3.099      8.260
REMARK INTER + INTRA:         -12.999
REMARK INTER:                 -11.750
REMARK INTRA:                  -1.249
REMARK UNBOUND:                -2.142
REMARK SMILES CCCCCCCCCCCCCCCCCC(=O)[O-]
REMARK SMILES IDX 10 1 11 2 12 3 13 4 14 5 15 6 16 7 17 8 18 9 19 10 20 11
REMARK SMILES IDX 9 12 8 13 7 14 6 15 5 16 4 17 3 18 2 19 1 20
REMARK H PARENT
REMARK INDEX MAP 4 1 6 2 8 3 10 4 12 5 14 6 16 7 18 8 20 9 2 10 1 11 3 12 5 13
REMARK INDEX MAP 7 14 9 15 11 16 13 17 15 18 17 19 19 20
ROOT
ATOM      1  C   UNL     1       9.657  31.489  19.852  1.00  0.00     0.000 C 
ENDROOT
BRANCH   1   2
ATOM      2  C   UNL     1      10.890  31.668  18.956  1.00  0.00     0.000 C 
BRANCH   2   3
ATOM      3  C   UNL     1      10.598  32.508  17.709  1.00  0.00     0.000 C 
BRANCH   3   4
ATOM      4  C   UNL     1       9.247  33.229  17.762  1.00  0.00     0.000 C 
BRANCH   4   5
ATOM      5  C   UNL     1       8.133  32.632  16.896  1.00  0.00     0.000 C 
BRANCH   5   6
ATOM      6  C   UNL     1       8.547  31.480  15.975  1.00  0.00     0.000 C 
BRANCH   6   7
ATOM      7  C   UNL     1       8.165  30.097  16.512  1.00  0.00     0.006 C 
BRANCH   7   8
ATOM      8  C   UNL     1       6.668  29.979  16.789  1.00  0.00     0.053 C 
BRANCH   8   9
ATOM      9  C   UNL     1       6.364  29.740  18.243  1.00  0.00     0.041 C 
ATOM     10  O   UNL     1       7.084  29.167  19.043  1.00  0.00    -0.550 OA
ATOM     11  O   UNL     1       5.182  30.255  18.629  1.00  0.00    -0.550 OA
ENDBRANCH   8   9
ENDBRANCH   7   8
ENDBRANCH   6   7
ENDBRANCH   5   6
ENDBRANCH   4   5
ENDBRANCH   3   4
ENDBRANCH   2   3
ENDBRANCH   1   2
BRANCH   1  12
ATOM     12  C   UNL     1       9.958  31.340  21.349  1.00  0.00     0.000 C 
BRANCH  12  13
ATOM     13  C   UNL     1      11.439  31.451  21.708  1.00  0.00    -0.000 C 
BRANCH  13  14
ATOM     14  C   UNL     1      11.694  32.203  23.018  1.00  0.00    -0.000 C 
BRANCH  14  15
ATOM     15  C   UNL     1      10.461  32.456  23.892  1.00  0.00    -0.000 C 
BRANCH  15  16
ATOM     16  C   UNL     1      10.745  32.824  25.352  1.00  0.00    -0.000 C 
BRANCH  16  17
ATOM     17  C   UNL     1      12.210  33.182  25.614  1.00  0.00    -0.000 C 
BRANCH  17  18
ATOM     18  C   UNL     1      12.355  34.027  26.882  1.00  0.00    -0.000 C 
BRANCH  18  19
ATOM     19  C   UNL     1      12.045  33.252  28.165  1.00  0.00    -0.003 C 
ATOM     20  C   UNL     1      11.401  34.103  29.249  1.00  0.00     0.004 C 
ENDBRANCH  18  19
ENDBRANCH  17  18
ENDBRANCH  16  17
ENDBRANCH  15  16
ENDBRANCH  14  15
ENDBRANCH  13  14
ENDBRANCH  12  13
ENDBRANCH   1  12
TORSDOF 16
ENDMDL
MODEL 14
REMARK VINA RESULT:    -5.570      4.627     10.024
REMARK INTER + INTRA:         -12.923
REMARK INTER:                 -11.492
REMARK INTRA:                  -1.431
REMARK UNBOUND:                -2.142
REMARK SMILES CCCCCCCCCCCCCCCCCC(=O)[O-]
REMARK SMILES IDX 10 1 11 2 12 3 13 4 14 5 15 6 16 7 17 8 18 9 19 10 20 11
REMARK SMILES IDX 9 12 8 13 7 14 6 15 5 16 4 17 3 18 2 19 1 20
REMARK H PARENT
REMARK INDEX MAP 4 1 6 2 8 3 10 4 12 5 14 6 16 7 18 8 20 9 2 10 1 11 3 12 5 13
REMARK INDEX MAP 7 14 9 15 11 16 13 17 15 18 17 19 19 20
ROOT
ATOM      1  C   UNL     1      11.336  32.918  25.507  1.00  0.00     0.000 C 
ENDROOT
BRANCH   1   2
ATOM      2  C   UNL     1      12.381  32.199  24.645  1.00  0.00     0.000 C 
BRANCH   2   3
ATOM      3  C   UNL     1      12.003  32.166  23.161  1.00  0.00     0.000 C 
BRANCH   3   4
ATOM      4  C   UNL     1      10.503  32.355  22.909  1.00  0.00     0.000 C 
BRANCH   4   5
ATOM      5  C   UNL     1       9.952  31.719  21.629  1.00  0.00     0.000 C 
BRANCH   5   6
ATOM      6  C   UNL     1      10.955  31.540  20.485  1.00  0.00     0.000 C 
BRANCH   6   7
ATOM      7  C   UNL     1      10.380  31.872  19.105  1.00  0.00     0.006 C 
BRANCH   7   8
ATOM      8  C   UNL     1       8.853  31.862  19.098  1.00  0.00     0.053 C 
BRANCH   8   9
ATOM      9  C   UNL     1       8.284  30.516  18.742  1.00  0.00     0.041 C 
ATOM     10  O   UNL     1       7.238  30.046  19.157  1.00  0.00    -0.550 OA
ATOM     11  O   UNL     1       9.043  29.836  17.864  1.00  0.00    -0.550 OA
ENDBRANCH   8   9
ENDBRANCH   7   8
ENDBRANCH   6   7
ENDBRANCH   5   6
ENDBRANCH   4   5
ENDBRANCH   3   4
ENDBRANCH   2   3
ENDBRANCH   1   2
BRANCH   1  12
ATOM     12  C   UNL     1      11.880  34.066  26.365  1.00  0.00     0.000 C 
BRANCH  12  13
ATOM     13  C   UNL     1      10.876  35.187  26.629  1.00  0.00    -0.000 C 
BRANCH  13  14
ATOM     14  C   UNL     1      10.184  35.077  27.992  1.00  0.00    -0.000 C 
BRANCH  14  15
ATOM     15  C   UNL     1      10.736  34.002  28.934  1.00  0.00    -0.000 C 
BRANCH  15  16
ATOM     16  C   UNL     1      10.693  34.341  30.427  1.00  0.00    -0.000 C 
BRANCH  16  17
ATOM     17  C   UNL     1      12.081  34.459  31.064  1.00  0.00    -0.000 C 
BRANCH  17  18
ATOM     18  C   UNL     1      13.185  34.227  30.029  1.00  0.00    -0.000 C 
BRANCH  18  19
ATOM     19  C   UNL     1      14.130  35.421  29.874  1.00  0.00    -0.003 C 
ATOM     20  C   UNL     1      13.858  36.254  28.629  1.00  0.00     0.004 C 
ENDBRANCH  18  19
ENDBRANCH  17  18
ENDBRANCH  16  17
ENDBRANCH  15  16
ENDBRANCH  14  15
ENDBRANCH  13  14
ENDBRANCH  12  13
ENDBRANCH   1  12
TORSDOF 16
ENDMDL
MODEL 15
REMARK VINA RESULT:    -5.568      3.373      4.967
REMARK INTER + INTRA:         -12.918
REMARK INTER:                 -11.468
REMARK INTRA:                  -1.450
REMARK UNBOUND:                -2.142
REMARK SMILES CCCCCCCCCCCCCCCCCC(=O)[O-]
REMARK SMILES IDX 10 1 11 2 12 3 13 4 14 5 15 6 16 7 17 8 18 9 19 10 20 11
REMARK SMILES IDX 9 12 8 13 7 14 6 15 5 16 4 17 3 18 2 19 1 20
REMARK H PARENT
REMARK INDEX MAP 4 1 6 2 8 3 10 4 12 5 14 6 16 7 18 8 20 9 2 10 1 11 3 12 5 13
REMARK INDEX MAP 7 14 9 15 11 16 13 17 15 18 17 19 19 20
ROOT
ATOM      1  C   UNL     1      10.485  31.181  21.809  1.00  0.00     0.000 C 
ENDROOT
BRANCH   1   2
ATOM      2  C   UNL     1      10.661  32.203  22.939  1.00  0.00     0.000 C 
BRANCH   2   3
ATOM      3  C   UNL     1      12.057  32.157  23.567  1.00  0.00     0.000 C 
BRANCH   3   4
ATOM      4  C   UNL     1      12.100  32.699  25.000  1.00  0.00     0.000 C 
BRANCH   4   5
ATOM      5  C   UNL     1      10.765  33.182  25.576  1.00  0.00     0.000 C 
BRANCH   5   6
ATOM      6  C   UNL     1      10.847  34.342  26.573  1.00  0.00     0.000 C 
BRANCH   6   7
ATOM      7  C   UNL     1      12.236  34.982  26.657  1.00  0.00     0.006 C 
BRANCH   7   8
ATOM      8  C   UNL     1      12.687  35.197  28.100  1.00  0.00     0.053 C 
BRANCH   8   9
ATOM      9  C   UNL     1      12.491  33.976  28.956  1.00  0.00     0.041 C 
ATOM     10  O   UNL     1      11.809  33.907  29.964  1.00  0.00    -0.550 OA
ATOM     11  O   UNL     1      13.142  32.894  28.492  1.00  0.00    -0.550 OA
ENDBRANCH   8   9
ENDBRANCH   7   8
ENDBRANCH   6   7
ENDBRANCH   5   6
ENDBRANCH   4   5
ENDBRANCH   3   4
ENDBRANCH   2   3
ENDBRANCH   1   2
BRANCH   1  12
ATOM     12  C   UNL     1      10.083  31.774  20.453  1.00  0.00     0.000 C 
BRANCH  12  13
ATOM     13  C   UNL     1      11.205  31.796  19.417  1.00  0.00    -0.000 C 
BRANCH  13  14
ATOM     14  C   UNL     1      10.707  31.650  17.976  1.00  0.00    -0.000 C 
BRANCH  14  15
ATOM     15  C   UNL     1      10.548  32.956  17.191  1.00  0.00    -0.000 C 
BRANCH  15  16
ATOM     16  C   UNL     1       9.400  32.987  16.176  1.00  0.00    -0.000 C 
BRANCH  16  17
ATOM     17  C   UNL     1       8.226  32.084  16.560  1.00  0.00    -0.000 C 
BRANCH  17  18
ATOM     18  C   UNL     1       7.253  32.810  17.493  1.00  0.00    -0.000 C 
BRANCH  18  19
ATOM     19  C   UNL     1       6.726  31.925  18.626  1.00  0.00    -0.003 C 
ATOM     20  C   UNL     1       7.189  30.479  18.533  1.00  0.00     0.004 C 
ENDBRANCH  18  19
ENDBRANCH  17  18
ENDBRANCH  16  17
ENDBRANCH  15  16
ENDBRANCH  14  15
ENDBRANCH  13  14
ENDBRANCH  12  13
ENDBRANCH   1  12
TORSDOF 16
ENDMDL
MODEL 16
REMARK VINA RESULT:    -5.562      2.554      3.649
REMARK INTER + INTRA:         -12.907
REMARK INTER:                 -11.441
REMARK INTRA:                  -1.467
REMARK UNBOUND:                -2.142
REMARK SMILES CCCCCCCCCCCCCCCCCC(=O)[O-]
REMARK SMILES IDX 10 1 11 2 12 3 13 4 14 5 15 6 16 7 17 8 18 9 19 10 20 11
REMARK SMILES IDX 9 12 8 13 7 14 6 15 5 16 4 17 3 18 2 19 1 20
REMARK H PARENT
REMARK INDEX MAP 4 1 6 2 8 3 10 4 12 5 14 6 16 7 18 8 20 9 2 10 1 11 3 12 5 13
REMARK INDEX MAP 7 14 9 15 11 16 13 17 15 18 17 19 19 20
ROOT
ATOM      1  C   UNL     1      11.039  31.809  19.395  1.00  0.00     0.000 C 
ENDROOT
BRANCH   1   2
ATOM      2  C   UNL     1       9.904  31.794  20.428  1.00  0.00     0.000 C 
BRANCH   2   3
ATOM      3  C   UNL     1      10.363  31.305  21.805  1.00  0.00     0.000 C 
BRANCH   3   4
ATOM      4  C   UNL     1      11.459  32.176  22.428  1.00  0.00     0.000 C 
BRANCH   4   5
ATOM      5  C   UNL     1      11.537  32.165  23.958  1.00  0.00     0.000 C 
BRANCH   5   6
ATOM      6  C   UNL     1      10.305  32.703  24.693  1.00  0.00     0.000 C 
BRANCH   6   7
ATOM      7  C   UNL     1      10.615  33.253  26.089  1.00  0.00     0.006 C 
BRANCH   7   8
ATOM      8  C   UNL     1      11.998  33.895  26.163  1.00  0.00     0.053 C 
BRANCH   8   9
ATOM      9  C   UNL     1      12.581  33.857  27.549  1.00  0.00     0.041 C 
ATOM     10  O   UNL     1      12.861  34.824  28.238  1.00  0.00    -0.550 OA
ATOM     11  O   UNL     1      12.762  32.608  28.014  1.00  0.00    -0.550 OA
ENDBRANCH   8   9
ENDBRANCH   7   8
ENDBRANCH   6   7
ENDBRANCH   5   6
ENDBRANCH   4   5
ENDBRANCH   3   4
ENDBRANCH   2   3
ENDBRANCH   1   2
BRANCH   1  12
ATOM     12  C   UNL     1      10.679  32.437  18.043  1.00  0.00     0.000 C 
BRANCH  12  13
ATOM     13  C   UNL     1       9.184  32.662  17.831  1.00  0.00    -0.000 C 
BRANCH  13  14
ATOM     14  C   UNL     1       8.564  31.716  16.798  1.00  0.00    -0.000 C 
BRANCH  14  15
ATOM     15  C   UNL     1       8.721  30.219  17.088  1.00  0.00    -0.000 C 
BRANCH  15  16
ATOM     16  C   UNL     1       7.484  29.520  17.661  1.00  0.00    -0.000 C 
BRANCH  16  17
ATOM     17  C   UNL     1       6.176  29.963  17.002  1.00  0.00    -0.000 C 
BRANCH  17  18
ATOM     18  C   UNL     1       5.118  30.311  18.052  1.00  0.00    -0.000 C 
BRANCH  18  19
ATOM     19  C   UNL     1       5.252  31.735  18.599  1.00  0.00    -0.003 C 
ATOM     20  C   UNL     1       5.967  31.806  19.940  1.00  0.00     0.004 C 
ENDBRANCH  18  19
ENDBRANCH  17  18
ENDBRANCH  16  17
ENDBRANCH  15  16
ENDBRANCH  14  15
ENDBRANCH  13  14
ENDBRANCH  12  13
ENDBRANCH   1  12
TORSDOF 16
ENDMDL
MODEL 17
REMARK VINA RESULT:    -5.524      2.677      7.438
REMARK INTER + INTRA:         -12.834
REMARK INTER:                 -11.318
REMARK INTRA:                  -1.516
REMARK UNBOUND:                -2.142
REMARK SMILES CCCCCCCCCCCCCCCCCC(=O)[O-]
REMARK SMILES IDX 10 1 11 2 12 3 13 4 14 5 15 6 16 7 17 8 18 9 19 10 20 11
REMARK SMILES IDX 9 12 8 13 7 14 6 15 5 16 4 17 3 18 2 19 1 20
REMARK H PARENT
REMARK INDEX MAP 4 1 6 2 8 3 10 4 12 5 14 6 16 7 18 8 20 9 2 10 1 11 3 12 5 13
REMARK INDEX MAP 7 14 9 15 11 16 13 17 15 18 17 19 19 20
ROOT
ATOM      1  C   UNL     1       7.481  32.463  20.353  1.00  0.00     0.000 C 
ENDROOT
BRANCH   1   2
ATOM      2  C   UNL     1       6.084  32.128  20.893  1.00  0.00     0.000 C 
BRANCH   2   3
ATOM      3  C   UNL     1       5.259  31.285  19.916  1.00  0.00     0.000 C 
BRANCH   3   4
ATOM      4  C   UNL     1       5.353  31.766  18.464  1.00  0.00     0.000 C 
BRANCH   4   5
ATOM      5  C   UNL     1       5.444  30.669  17.398  1.00  0.00     0.000 C 
BRANCH   5   6
ATOM      6  C   UNL     1       6.732  29.839  17.401  1.00  0.00     0.000 C 
BRANCH   6   7
ATOM      7  C   UNL     1       7.783  30.331  16.402  1.00  0.00     0.006 C 
BRANCH   7   8
ATOM      8  C   UNL     1       8.953  31.030  17.092  1.00  0.00     0.053 C 
BRANCH   8   9
ATOM      9  C   UNL     1       9.031  32.494  16.759  1.00  0.00     0.041 C 
ATOM     10  O   UNL     1       8.227  33.350  17.087  1.00  0.00    -0.550 OA
ATOM     11  O   UNL     1      10.129  32.818  16.052  1.00  0.00    -0.550 OA
ENDBRANCH   8   9
ENDBRANCH   7   8
ENDBRANCH   6   7
ENDBRANCH   5   6
ENDBRANCH   4   5
ENDBRANCH   3   4
ENDBRANCH   2   3
ENDBRANCH   1   2
BRANCH   1  12
ATOM     12  C   UNL     1       8.503  31.323  20.445  1.00  0.00     0.000 C 
BRANCH  12  13
ATOM     13  C   UNL     1       9.919  31.774  20.798  1.00  0.00    -0.000 C 
BRANCH  13  14
ATOM     14  C   UNL     1      10.102  32.100  22.284  1.00  0.00    -0.000 C 
BRANCH  14  15
ATOM     15  C   UNL     1      11.547  32.093  22.794  1.00  0.00    -0.000 C 
BRANCH  15  16
ATOM     16  C   UNL     1      11.718  32.246  24.309  1.00  0.00    -0.000 C 
BRANCH  16  17
ATOM     17  C   UNL     1      10.461  32.763  25.013  1.00  0.00    -0.000 C 
BRANCH  17  18
ATOM     18  C   UNL     1      10.820  33.581  26.256  1.00  0.00    -0.000 C 
BRANCH  18  19
ATOM     19  C   UNL     1      12.300  33.967  26.320  1.00  0.00    -0.003 C 
ATOM     20  C   UNL     1      12.573  35.183  27.193  1.00  0.00     0.004 C 
ENDBRANCH  18  19
ENDBRANCH  17  18
ENDBRANCH  16  17
ENDBRANCH  15  16
ENDBRANCH  14  15
ENDBRANCH  13  14
ENDBRANCH  12  13
ENDBRANCH   1  12
TORSDOF 16
ENDMDL
MODEL 18
REMARK VINA RESULT:    -5.518      3.870      5.475
REMARK INTER + INTRA:         -12.823
REMARK INTER:                 -11.843
REMARK INTRA:                  -0.980
REMARK UNBOUND:                -2.142
REMARK SMILES CCCCCCCCCCCCCCCCCC(=O)[O-]
REMARK SMILES IDX 10 1 11 2 12 3 13 4 14 5 15 6 16 7 17 8 18 9 19 10 20 11
REMARK SMILES IDX 9 12 8 13 7 14 6 15 5 16 4 17 3 18 2 19 1 20
REMARK H PARENT
REMARK INDEX MAP 4 1 6 2 8 3 10 4 12 5 14 6 16 7 18 8 20 9 2 10 1 11 3 12 5 13
REMARK INDEX MAP 7 14 9 15 11 16 13 17 15 18 17 19 19 20
ROOT
ATOM      1  C   UNL     1      11.780  31.831  22.522  1.00  0.00     0.000 C 
ENDROOT
BRANCH   1   2
ATOM      2  C   UNL     1      11.841  32.256  23.995  1.00  0.00     0.000 C 
BRANCH   2   3
ATOM      3  C   UNL     1      10.455  32.519  24.593  1.00  0.00     0.000 C 
BRANCH   3   4
ATOM      4  C   UNL     1      10.498  32.977  26.055  1.00  0.00     0.000 C 
BRANCH   4   5
ATOM      5  C   UNL     1      11.005  34.402  26.298  1.00  0.00     0.000 C 
BRANCH   5   6
ATOM      6  C   UNL     1      12.409  34.518  26.900  1.00  0.00     0.000 C 
BRANCH   6   7
ATOM      7  C   UNL     1      12.668  33.538  28.048  1.00  0.00     0.006 C 
BRANCH   7   8
ATOM      8  C   UNL     1      12.723  34.238  29.404  1.00  0.00     0.053 C 
BRANCH   8   9
ATOM      9  C   UNL     1      13.966  33.901  30.181  1.00  0.00     0.041 C 
ATOM     10  O   UNL     1      14.493  34.597  31.032  1.00  0.00    -0.550 OA
ATOM     11  O   UNL     1      14.475  32.695  29.869  1.00  0.00    -0.550 OA
ENDBRANCH   8   9
ENDBRANCH   7   8
ENDBRANCH   6   7
ENDBRANCH   5   6
ENDBRANCH   4   5
ENDBRANCH   3   4
ENDBRANCH   2   3
ENDBRANCH   1   2
BRANCH   1  12
ATOM     12  C   UNL     1      10.437  31.242  22.071  1.00  0.00     0.000 C 
BRANCH  12  13
ATOM     13  C   UNL     1       9.635  32.145  21.137  1.00  0.00    -0.000 C 
BRANCH  13  14
ATOM     14  C   UNL     1       8.773  31.372  20.133  1.00  0.00    -0.000 C 
BRANCH  14  15
ATOM     15  C   UNL     1       7.673  32.181  19.438  1.00  0.00    -0.000 C 
BRANCH  15  16
ATOM     16  C   UNL     1       6.235  31.761  19.760  1.00  0.00    -0.000 C 
BRANCH  16  17
ATOM     17  C   UNL     1       5.808  30.470  19.057  1.00  0.00    -0.000 C 
BRANCH  17  18
ATOM     18  C   UNL     1       5.888  30.616  17.535  1.00  0.00    -0.000 C 
BRANCH  18  19
ATOM     19  C   UNL     1       6.869  29.638  16.884  1.00  0.00    -0.003 C 
ATOM     20  C   UNL     1       8.140  30.302  16.375  1.00  0.00     0.004 C 
ENDBRANCH  18  19
ENDBRANCH  17  18
ENDBRANCH  16  17
ENDBRANCH  15  16
ENDBRANCH  14  15
ENDBRANCH  13  14
ENDBRANCH  12  13
ENDBRANCH   1  12
TORSDOF 16
ENDMDL
MODEL 19
REMARK VINA RESULT:    -5.513      4.839     10.202
REMARK INTER + INTRA:         -12.813
REMARK INTER:                 -11.836
REMARK INTRA:                  -0.977
REMARK UNBOUND:                -2.142
REMARK SMILES CCCCCCCCCCCCCCCCCC(=O)[O-]
REMARK SMILES IDX 10 1 11 2 12 3 13 4 14 5 15 6 16 7 17 8 18 9 19 10 20 11
REMARK SMILES IDX 9 12 8 13 7 14 6 15 5 16 4 17 3 18 2 19 1 20
REMARK H PARENT
REMARK INDEX MAP 4 1 6 2 8 3 10 4 12 5 14 6 16 7 18 8 20 9 2 10 1 11 3 12 5 13
REMARK INDEX MAP 7 14 9 15 11 16 13 17 15 18 17 19 19 20
ROOT
ATOM      1  C   UNL     1      11.030  33.023  25.364  1.00  0.00     0.000 C 
ENDROOT
BRANCH   1   2
ATOM      2  C   UNL     1      11.509  32.128  24.214  1.00  0.00     0.000 C 
BRANCH   2   3
ATOM      3  C   UNL     1      10.595  32.200  22.987  1.00  0.00     0.000 C 
BRANCH   3   4
ATOM      4  C   UNL     1      11.140  31.439  21.774  1.00  0.00     0.000 C 
BRANCH   4   5
ATOM      5  C   UNL     1      10.455  31.731  20.435  1.00  0.00     0.000 C 
BRANCH   5   6
ATOM      6  C   UNL     1       8.926  31.648  20.434  1.00  0.00     0.000 C 
BRANCH   6   7
ATOM      7  C   UNL     1       8.310  31.666  19.032  1.00  0.00     0.006 C 
BRANCH   7   8
ATOM      8  C   UNL     1       9.143  30.874  18.026  1.00  0.00     0.053 C 
BRANCH   8   9
ATOM      9  C   UNL     1       8.359  29.774  17.363  1.00  0.00     0.041 C 
ATOM     10  O   UNL     1       7.860  28.811  17.920  1.00  0.00    -0.550 OA
ATOM     11  O   UNL     1       8.220  29.948  16.036  1.00  0.00    -0.550 OA
ENDBRANCH   8   9
ENDBRANCH   7   8
ENDBRANCH   6   7
ENDBRANCH   5   6
ENDBRANCH   4   5
ENDBRANCH   3   4
ENDBRANCH   2   3
ENDBRANCH   1   2
BRANCH   1  12
ATOM     12  C   UNL     1      12.134  33.518  26.306  1.00  0.00     0.000 C 
BRANCH  12  13
ATOM     13  C   UNL     1      11.820  34.839  27.006  1.00  0.00    -0.000 C 
BRANCH  13  14
ATOM     14  C   UNL     1      13.067  35.581  27.498  1.00  0.00    -0.000 C 
BRANCH  14  15
ATOM     15  C   UNL     1      13.385  35.432  28.989  1.00  0.00    -0.000 C 
BRANCH  15  16
ATOM     16  C   UNL     1      13.138  34.042  29.586  1.00  0.00    -0.000 C 
BRANCH  16  17
ATOM     17  C   UNL     1      12.669  34.081  31.043  1.00  0.00    -0.000 C 
BRANCH  17  18
ATOM     18  C   UNL     1      11.641  35.193  31.264  1.00  0.00    -0.000 C 
BRANCH  18  19
ATOM     19  C   UNL     1      10.279  34.893  30.632  1.00  0.00    -0.003 C 
ATOM     20  C   UNL     1       9.707  36.059  29.839  1.00  0.00     0.004 C 
ENDBRANCH  18  19
ENDBRANCH  17  18
ENDBRANCH  16  17
ENDBRANCH  15  16
ENDBRANCH  14  15
ENDBRANCH  13  14
ENDBRANCH  12  13
ENDBRANCH   1  12
TORSDOF 16
ENDMDL
MODEL 20
REMARK VINA RESULT:    -5.490      4.337      9.681
REMARK INTER + INTRA:         -12.768
REMARK INTER:                 -12.019
REMARK INTRA:                  -0.749
REMARK UNBOUND:                -2.142
REMARK SMILES CCCCCCCCCCCCCCCCCC(=O)[O-]
REMARK SMILES IDX 10 1 11 2 12 3 13 4 14 5 15 6 16 7 17 8 18 9 19 10 20 11
REMARK SMILES IDX 9 12 8 13 7 14 6 15 5 16 4 17 3 18 2 19 1 20
REMARK H PARENT
REMARK INDEX MAP 4 1 6 2 8 3 10 4 12 5 14 6 16 7 18 8 20 9 2 10 1 11 3 12 5 13
REMARK INDEX MAP 7 14 9 15 11 16 13 17 15 18 17 19 19 20
ROOT
ATOM      1  C   UNL     1      11.120  31.802  22.355  1.00  0.00     0.000 C 
ENDROOT
BRANCH   1   2
ATOM      2  C   UNL     1       9.751  32.245  21.823  1.00  0.00     0.000 C 
BRANCH   2   3
ATOM      3  C   UNL     1       9.391  31.580  20.491  1.00  0.00     0.000 C 
BRANCH   3   4
ATOM      4  C   UNL     1      10.471  31.742  19.416  1.00  0.00     0.000 C 
BRANCH   4   5
ATOM      5  C   UNL     1      10.092  31.272  18.008  1.00  0.00     0.000 C 
BRANCH   5   6
ATOM      6  C   UNL     1       8.593  31.110  17.738  1.00  0.00     0.000 C 
BRANCH   6   7
ATOM      7  C   UNL     1       8.189  29.684  17.352  1.00  0.00     0.006 C 
BRANCH   7   8
ATOM      8  C   UNL     1       6.769  29.617  16.792  1.00  0.00     0.053 C 
BRANCH   8   9
ATOM      9  C   UNL     1       5.720  29.873  17.839  1.00  0.00     0.041 C 
ATOM     10  O   UNL     1       5.776  29.536  19.009  1.00  0.00    -0.550 OA
ATOM     11  O   UNL     1       4.663  30.562  17.372  1.00  0.00    -0.550 OA
ENDBRANCH   8   9
ENDBRANCH   7   8
ENDBRANCH   6   7
ENDBRANCH   5   6
ENDBRANCH   4   5
ENDBRANCH   3   4
ENDBRANCH   2   3
ENDBRANCH   1   2
BRANCH   1  12
ATOM     12  C   UNL     1      11.423  32.221  23.799  1.00  0.00     0.000 C 
BRANCH  12  13
ATOM     13  C   UNL     1      10.213  32.746  24.570  1.00  0.00    -0.000 C 
BRANCH  13  14
ATOM     14  C   UNL     1      10.543  33.177  26.002  1.00  0.00    -0.000 C 
BRANCH  14  15
ATOM     15  C   UNL     1      11.790  34.053  26.163  1.00  0.00    -0.000 C 
BRANCH  15  16
ATOM     16  C   UNL     1      11.845  34.904  27.436  1.00  0.00    -0.000 C 
BRANCH  16  17
ATOM     17  C   UNL     1      13.166  35.657  27.607  1.00  0.00    -0.000 C 
BRANCH  17  18
ATOM     18  C   UNL     1      13.214  36.392  28.949  1.00  0.00    -0.000 C 
BRANCH  18  19
ATOM     19  C   UNL     1      13.068  35.461  30.156  1.00  0.00    -0.003 C 
ATOM     20  C   UNL     1      14.293  34.595  30.406  1.00  0.00     0.004 C 
ENDBRANCH  18  19
ENDBRANCH  17  18
ENDBRANCH  16  17
ENDBRANCH  15  16
ENDBRANCH  14  15
ENDBRANCH  13  14
ENDBRANCH  12  13
ENDBRANCH   1  12
TORSDOF 16
ENDMDL
