MODEL 1
REMARK VINA RESULT:    -6.341      0.000      0.000
REMARK INTER + INTRA:         -13.591
REMARK INTER:                 -12.272
REMARK INTRA:                  -1.319
REMARK UNBOUND:                -1.319
REMARK SMILES CCCCCCCCCCCCCCCCCC(=O)[O-]
REMARK SMILES IDX 10 1 11 2 12 3 13 4 14 5 15 6 16 7 17 8 18 9 19 10 20 11
REMARK SMILES IDX 9 12 8 13 7 14 6 15 5 16 4 17 3 18 2 19 1 20
REMARK H PARENT
REMARK INDEX MAP 4 1 6 2 8 3 10 4 12 5 14 6 16 7 18 8 20 9 2 10 1 11 3 12 5 13
REMARK INDEX MAP 7 14 9 15 11 16 13 17 15 18 17 19 19 20
ROOT
ATOM      1  C   UNL     1       6.109  31.925  20.669  1.00  0.00     0.000 C 
ENDROOT
BRANCH   1   2
ATOM      2  C   UNL     1       5.333  32.530  21.846  1.00  0.00     0.000 C 
BRANCH   2   3
ATOM      3  C   UNL     1       6.225  33.349  22.785  1.00  0.00     0.000 C 
BRANCH   3   4
ATOM      4  C   UNL     1       7.528  33.821  22.131  1.00  0.00     0.000 C 
BRANCH   4   5
ATOM      5  C   UNL     1       8.807  33.119  22.598  1.00  0.00     0.000 C 
BRANCH   5   6
ATOM      6  C   UNL     1       9.515  32.253  21.551  1.00  0.00     0.000 C 
BRANCH   6   7
ATOM      7  C   UNL     1      10.923  31.817  21.964  1.00  0.00     0.006 C 
BRANCH   7   8
ATOM      8  C   UNL     1      11.119  31.856  23.478  1.00  0.00     0.053 C 
BRANCH   8   9
ATOM      9  C   UNL     1      12.560  32.033  23.873  1.00  0.00     0.041 C 
ATOM     10  O   UNL     1      13.521  31.978  23.126  1.00  0.00    -0.550 OA
ATOM     11  O   UNL     1      12.721  32.296  25.182  1.00  0.00    -0.550 OA
ENDBRANCH   8   9
ENDBRANCH   7   8
ENDBRANCH   6   7
ENDBRANCH   5   6
ENDBRANCH   4   5
ENDBRANCH   3   4
ENDBRANCH   2   3
ENDBRANCH   1   2
BRANCH   1  12
ATOM     12  C   UNL     1       5.278  31.046  19.726  1.00  0.00     0.000 C 
BRANCH  12  13
ATOM     13  C   UNL     1       5.296  31.497  18.267  1.00  0.00    -0.000 C 
BRANCH  13  14
ATOM     14  C   UNL     1       5.690  30.385  17.290  1.00  0.00    -0.000 C 
BRANCH  14  15
ATOM     15  C   UNL     1       6.903  29.541  17.696  1.00  0.00    -0.000 C 
BRANCH  15  16
ATOM     16  C   UNL     1       8.273  30.170  17.421  1.00  0.00    -0.000 C 
BRANCH  16  17
ATOM     17  C   UNL     1       8.310  31.010  16.142  1.00  0.00    -0.000 C 
BRANCH  17  18
ATOM     18  C   UNL     1       8.584  32.483  16.456  1.00  0.00    -0.000 C 
BRANCH  18  19
ATOM     19  C   UNL     1      10.073  32.838  16.444  1.00  0.00    -0.003 C 
ATOM     20  C   UNL     1      10.704  32.861  17.828  1.00  0.00     0.004 C 
ENDBRANCH  18  19
ENDBRANCH  17  18
ENDBRANCH  16  17
ENDBRANCH  15  16
ENDBRANCH  14  15
ENDBRANCH  13  14
ENDBRANCH  12  13
ENDBRANCH   1  12
TORSDOF 16
ENDMDL
MODEL 2
REMARK VINA RESULT:    -6.267      1.458      4.802
REMARK INTER + INTRA:         -13.447
REMARK INTER:                 -11.374
REMARK INTRA:                  -2.073
REMARK UNBOUND:                -1.319
REMARK SMILES CCCCCCCCCCCCCCCCCC(=O)[O-]
REMARK SMILES IDX 10 1 11 2 12 3 13 4 14 5 15 6 16 7 17 8 18 9 19 10 20 11
REMARK SMILES IDX 9 12 8 13 7 14 6 15 5 16 4 17 3 18 2 19 1 20
REMARK H PARENT
REMARK INDEX MAP 4 1 6 2 8 3 10 4 12 5 14 6 16 7 18 8 20 9 2 10 1 11 3 12 5 13
REMARK INDEX MAP 7 14 9 15 11 16 13 17 15 18 17 19 19 20
ROOT
ATOM      1  C   UNL     1       6.850  29.396  17.911  1.00  0.00     0.000 C 
ENDROOT
BRANCH   1   2
ATOM      2  C   UNL     1       8.164  29.555  17.136  1.00  0.00     0.000 C 
BRANCH   2   3
ATOM      3  C   UNL     1       8.123  30.711  16.131  1.00  0.00     0.000 C 
BRANCH   3   4
ATOM      4  C   UNL     1       8.945  31.928  16.568  1.00  0.00     0.000 C 
BRANCH   4   5
ATOM      5  C   UNL     1       8.413  32.697  17.782  1.00  0.00     0.000 C 
BRANCH   5   6
ATOM      6  C   UNL     1       9.275  32.630  19.046  1.00  0.00     0.000 C 
BRANCH   6   7
ATOM      7  C   UNL     1      10.290  31.484  19.037  1.00  0.00     0.006 C 
BRANCH   7   8
ATOM      8  C   UNL     1      11.590  31.857  19.746  1.00  0.00     0.053 C 
BRANCH   8   9
ATOM      9  C   UNL     1      11.706  31.234  21.111  1.00  0.00     0.041 C 
ATOM     10  O   UNL     1      12.665  31.315  21.858  1.00  0.00    -0.550 OA
ATOM     11  O   UNL     1      10.601  30.561  21.480  1.00  0.00    -0.550 OA
ENDBRANCH   8   9
ENDBRANCH   7   8
ENDBRANCH   6   7
ENDBRANCH   5   6
ENDBRANCH   4   5
ENDBRANCH   3   4
ENDBRANCH   2   3
ENDBRANCH   1   2
BRANCH   1  12
ATOM     12  C   UNL     1       5.645  30.126  17.305  1.00  0.00     0.000 C 
BRANCH  12  13
ATOM     13  C   UNL     1       5.119  31.284  18.151  1.00  0.00    -0.000 C 
BRANCH  13  14
ATOM     14  C   UNL     1       5.144  31.000  19.656  1.00  0.00    -0.000 C 
BRANCH  14  15
ATOM     15  C   UNL     1       5.959  31.981  20.505  1.00  0.00    -0.000 C 
BRANCH  15  16
ATOM     16  C   UNL     1       5.317  32.406  21.830  1.00  0.00    -0.000 C 
BRANCH  16  17
ATOM     17  C   UNL     1       6.236  33.264  22.703  1.00  0.00    -0.000 C 
BRANCH  17  18
ATOM     18  C   UNL     1       7.659  33.300  22.139  1.00  0.00    -0.000 C 
BRANCH  18  19
ATOM     19  C   UNL     1       8.650  34.037  23.044  1.00  0.00    -0.003 C 
ATOM     20  C   UNL     1       9.671  33.120  23.700  1.00  0.00     0.004 C 
ENDBRANCH  18  19
ENDBRANCH  17  18
ENDBRANCH  16  17
ENDBRANCH  15  16
ENDBRANCH  14  15
ENDBRANCH  13  14
ENDBRANCH  12  13
ENDBRANCH   1  12
TORSDOF 16
ENDMDL
MODEL 3
REMARK VINA RESULT:    -6.265      1.207      4.132
REMARK INTER + INTRA:         -13.444
REMARK INTER:                 -11.617
REMARK INTRA:                  -1.827
REMARK UNBOUND:                -1.319
REMARK SMILES CCCCCCCCCCCCCCCCCC(=O)[O-]
REMARK SMILES IDX 10 1 11 2 12 3 13 4 14 5 15 6 16 7 17 8 18 9 19 10 20 11
REMARK SMILES IDX 9 12 8 13 7 14 6 15 5 16 4 17 3 18 2 19 1 20
REMARK H PARENT
REMARK INDEX MAP 4 1 6 2 8 3 10 4 12 5 14 6 16 7 18 8 20 9 2 10 1 11 3 12 5 13
REMARK INDEX MAP 7 14 9 15 11 16 13 17 15 18 17 19 19 20
ROOT
ATOM      1  C   UNL     1       7.466  33.311  17.182  1.00  0.00     0.000 C 
ENDROOT
BRANCH   1   2
ATOM      2  C   UNL     1       8.231  32.244  16.389  1.00  0.00     0.000 C 
BRANCH   2   3
ATOM      3  C   UNL     1       9.271  31.508  17.239  1.00  0.00     0.000 C 
BRANCH   3   4
ATOM      4  C   UNL     1      10.499  32.360  17.574  1.00  0.00     0.000 C 
BRANCH   4   5
ATOM      5  C   UNL     1      11.213  32.023  18.887  1.00  0.00     0.000 C 
BRANCH   5   6
ATOM      6  C   UNL     1      10.307  31.629  20.058  1.00  0.00     0.000 C 
BRANCH   6   7
ATOM      7  C   UNL     1      11.074  31.234  21.323  1.00  0.00     0.006 C 
BRANCH   7   8
ATOM      8  C   UNL     1      10.861  32.227  22.463  1.00  0.00     0.053 C 
BRANCH   8   9
ATOM      9  C   UNL     1      11.949  32.164  23.499  1.00  0.00     0.041 C 
ATOM     10  O   UNL     1      13.103  31.819  23.309  1.00  0.00    -0.550 OA
ATOM     11  O   UNL     1      11.543  32.562  24.718  1.00  0.00    -0.550 OA
ENDBRANCH   8   9
ENDBRANCH   7   8
ENDBRANCH   6   7
ENDBRANCH   5   6
ENDBRANCH   4   5
ENDBRANCH   3   4
ENDBRANCH   2   3
ENDBRANCH   1   2
BRANCH   1  12
ATOM     12  C   UNL     1       6.044  33.597  16.683  1.00  0.00     0.000 C 
BRANCH  12  13
ATOM     13  C   UNL     1       4.939  32.993  17.548  1.00  0.00    -0.000 C 
BRANCH  13  14
ATOM     14  C   UNL     1       4.967  31.462  17.592  1.00  0.00    -0.000 C 
BRANCH  14  15
ATOM     15  C   UNL     1       5.208  30.840  18.971  1.00  0.00    -0.000 C 
BRANCH  15  16
ATOM     16  C   UNL     1       6.646  30.918  19.494  1.00  0.00    -0.000 C 
BRANCH  16  17
ATOM     17  C   UNL     1       6.850  32.005  20.552  1.00  0.00    -0.000 C 
BRANCH  17  18
ATOM     18  C   UNL     1       5.583  32.211  21.385  1.00  0.00    -0.000 C 
BRANCH  18  19
ATOM     19  C   UNL     1       5.805  33.087  22.621  1.00  0.00    -0.003 C 
ATOM     20  C   UNL     1       7.203  33.682  22.699  1.00  0.00     0.004 C 
ENDBRANCH  18  19
ENDBRANCH  17  18
ENDBRANCH  16  17
ENDBRANCH  15  16
ENDBRANCH  14  15
ENDBRANCH  13  14
ENDBRANCH  12  13
ENDBRANCH   1  12
TORSDOF 16
ENDMDL
MODEL 4
REMARK VINA RESULT:    -6.243      1.954      4.240
REMARK INTER + INTRA:         -13.401
REMARK INTER:                 -11.903
REMARK INTRA:                  -1.498
REMARK UNBOUND:                -1.319
REMARK SMILES CCCCCCCCCCCCCCCCCC(=O)[O-]
REMARK SMILES IDX 10 1 11 2 12 3 13 4 14 5 15 6 16 7 17 8 18 9 19 10 20 11
REMARK SMILES IDX 9 12 8 13 7 14 6 15 5 16 4 17 3 18 2 19 1 20
REMARK H PARENT
REMARK INDEX MAP 4 1 6 2 8 3 10 4 12 5 14 6 16 7 18 8 20 9 2 10 1 11 3 12 5 13
REMARK INDEX MAP 7 14 9 15 11 16 13 17 15 18 17 19 19 20
ROOT
ATOM      1  C   UNL     1      10.890  31.832  19.322  1.00  0.00     0.000 C 
ENDROOT
BRANCH   1   2
ATOM      2  C   UNL     1       9.726  31.814  20.321  1.00  0.00     0.000 C 
BRANCH   2   3
ATOM      3  C   UNL     1      10.186  31.566  21.761  1.00  0.00     0.000 C 
BRANCH   3   4
ATOM      4  C   UNL     1      11.705  31.420  21.900  1.00  0.00     0.000 C 
BRANCH   4   5
ATOM      5  C   UNL     1      12.333  32.075  23.135  1.00  0.00     0.000 C 
BRANCH   5   6
ATOM      6  C   UNL     1      11.439  32.152  24.377  1.00  0.00     0.000 C 
BRANCH   6   7
ATOM      7  C   UNL     1      11.888  33.209  25.391  1.00  0.00     0.006 C 
BRANCH   7   8
ATOM      8  C   UNL     1      10.929  33.316  26.575  1.00  0.00     0.053 C 
BRANCH   8   9
ATOM      9  C   UNL     1      11.612  33.091  27.896  1.00  0.00     0.041 C 
ATOM     10  O   UNL     1      12.781  32.784  28.058  1.00  0.00    -0.550 OA
ATOM     11  O   UNL     1      10.801  33.287  28.952  1.00  0.00    -0.550 OA
ENDBRANCH   8   9
ENDBRANCH   7   8
ENDBRANCH   6   7
ENDBRANCH   5   6
ENDBRANCH   4   5
ENDBRANCH   3   4
ENDBRANCH   2   3
ENDBRANCH   1   2
BRANCH   1  12
ATOM     12  C   UNL     1      10.516  31.461  17.882  1.00  0.00     0.000 C 
BRANCH  12  13
ATOM     13  C   UNL     1       9.079  31.806  17.495  1.00  0.00    -0.000 C 
BRANCH  13  14
ATOM     14  C   UNL     1       8.422  30.757  16.593  1.00  0.00    -0.000 C 
BRANCH  14  15
ATOM     15  C   UNL     1       8.003  29.455  17.282  1.00  0.00    -0.000 C 
BRANCH  15  16
ATOM     16  C   UNL     1       6.845  29.573  18.279  1.00  0.00    -0.000 C 
BRANCH  16  17
ATOM     17  C   UNL     1       5.642  30.340  17.726  1.00  0.00    -0.000 C 
BRANCH  17  18
ATOM     18  C   UNL     1       5.080  31.312  18.766  1.00  0.00    -0.000 C 
BRANCH  18  19
ATOM     19  C   UNL     1       6.106  31.730  19.822  1.00  0.00    -0.003 C 
ATOM     20  C   UNL     1       5.485  32.089  21.164  1.00  0.00     0.004 C 
ENDBRANCH  18  19
ENDBRANCH  17  18
ENDBRANCH  16  17
ENDBRANCH  15  16
ENDBRANCH  14  15
ENDBRANCH  13  14
ENDBRANCH  12  13
ENDBRANCH   1  12
TORSDOF 16
ENDMDL
MODEL 5
REMARK VINA RESULT:    -6.241      1.931      5.963
REMARK INTER + INTRA:         -13.397
REMARK INTER:                 -11.763
REMARK INTRA:                  -1.634
REMARK UNBOUND:                -1.319
REMARK SMILES CCCCCCCCCCCCCCCCCC(=O)[O-]
REMARK SMILES IDX 10 1 11 2 12 3 13 4 14 5 15 6 16 7 17 8 18 9 19 10 20 11
REMARK SMILES IDX 9 12 8 13 7 14 6 15 5 16 4 17 3 18 2 19 1 20
REMARK H PARENT
REMARK INDEX MAP 4 1 6 2 8 3 10 4 12 5 14 6 16 7 18 8 20 9 2 10 1 11 3 12 5 13
REMARK INDEX MAP 7 14 9 15 11 16 13 17 15 18 17 19 19 20
ROOT
ATOM      1  C   UNL     1       5.268  31.651  19.273  1.00  0.00     0.000 C 
ENDROOT
BRANCH   1   2
ATOM      2  C   UNL     1       5.353  30.264  18.623  1.00  0.00     0.000 C 
BRANCH   2   3
ATOM      3  C   UNL     1       5.861  30.317  17.179  1.00  0.00     0.000 C 
BRANCH   3   4
ATOM      4  C   UNL     1       7.203  29.605  16.978  1.00  0.00     0.000 C 
BRANCH   4   5
ATOM      5  C   UNL     1       8.402  30.507  16.666  1.00  0.00     0.000 C 
BRANCH   5   6
ATOM      6  C   UNL     1       8.148  32.015  16.769  1.00  0.00     0.000 C 
BRANCH   6   7
ATOM      7  C   UNL     1       8.834  32.672  17.970  1.00  0.00     0.006 C 
BRANCH   7   8
ATOM      8  C   UNL     1      10.317  32.318  18.054  1.00  0.00     0.053 C 
BRANCH   8   9
ATOM      9  C   UNL     1      10.659  31.541  19.295  1.00  0.00     0.041 C 
ATOM     10  O   UNL     1      11.772  31.400  19.771  1.00  0.00    -0.550 OA
ATOM     11  O   UNL     1       9.582  30.999  19.894  1.00  0.00    -0.550 OA
ENDBRANCH   8   9
ENDBRANCH   7   8
ENDBRANCH   6   7
ENDBRANCH   5   6
ENDBRANCH   4   5
ENDBRANCH   3   4
ENDBRANCH   2   3
ENDBRANCH   1   2
BRANCH   1  12
ATOM     12  C   UNL     1       6.179  31.855  20.489  1.00  0.00     0.000 C 
BRANCH  12  13
ATOM     13  C   UNL     1       5.491  32.501  21.691  1.00  0.00    -0.000 C 
BRANCH  13  14
ATOM     14  C   UNL     1       6.452  33.267  22.605  1.00  0.00    -0.000 C 
BRANCH  14  15
ATOM     15  C   UNL     1       7.899  33.373  22.111  1.00  0.00    -0.000 C 
BRANCH  15  16
ATOM     16  C   UNL     1       8.968  33.481  23.203  1.00  0.00    -0.000 C 
BRANCH  16  17
ATOM     17  C   UNL     1      10.038  32.390  23.116  1.00  0.00    -0.000 C 
BRANCH  17  18
ATOM     18  C   UNL     1      11.046  32.511  24.262  1.00  0.00    -0.000 C 
BRANCH  18  19
ATOM     19  C   UNL     1      10.387  32.691  25.632  1.00  0.00    -0.003 C 
ATOM     20  C   UNL     1      10.750  34.002  26.313  1.00  0.00     0.004 C 
ENDBRANCH  18  19
ENDBRANCH  17  18
ENDBRANCH  16  17
ENDBRANCH  15  16
ENDBRANCH  14  15
ENDBRANCH  13  14
ENDBRANCH  12  13
ENDBRANCH   1  12
TORSDOF 16
ENDMDL
MODEL 6
REMARK VINA RESULT:    -6.222      1.712      2.356
REMARK INTER + INTRA:         -13.361
REMARK INTER:                 -11.536
REMARK INTRA:                  -1.825
REMARK UNBOUND:                -1.319
REMARK SMILES CCCCCCCCCCCCCCCCCC(=O)[O-]
REMARK SMILES IDX 10 1 11 2 12 3 13 4 14 5 15 6 16 7 17 8 18 9 19 10 20 11
REMARK SMILES IDX 9 12 8 13 7 14 6 15 5 16 4 17 3 18 2 19 1 20
REMARK H PARENT
REMARK INDEX MAP 4 1 6 2 8 3 10 4 12 5 14 6 16 7 18 8 20 9 2 10 1 11 3 12 5 13
REMARK INDEX MAP 7 14 9 15 11 16 13 17 15 18 17 19 19 20
ROOT
ATOM      1  C   UNL     1       5.503  32.192  21.551  1.00  0.00     0.000 C 
ENDROOT
BRANCH   1   2
ATOM      2  C   UNL     1       6.441  33.086  22.372  1.00  0.00     0.000 C 
BRANCH   2   3
ATOM      3  C   UNL     1       7.859  33.142  21.797  1.00  0.00     0.000 C 
BRANCH   3   4
ATOM      4  C   UNL     1       8.937  33.405  22.855  1.00  0.00     0.000 C 
BRANCH   4   5
ATOM      5  C   UNL     1      10.083  32.390  22.912  1.00  0.00     0.000 C 
BRANCH   5   6
ATOM      6  C   UNL     1      10.836  32.306  24.244  1.00  0.00     0.000 C 
BRANCH   6   7
ATOM      7  C   UNL     1      10.386  33.350  25.270  1.00  0.00     0.006 C 
BRANCH   7   8
ATOM      8  C   UNL     1      10.692  32.921  26.703  1.00  0.00     0.053 C 
BRANCH   8   9
ATOM      9  C   UNL     1      12.079  33.304  27.140  1.00  0.00     0.041 C 
ATOM     10  O   UNL     1      12.781  32.689  27.924  1.00  0.00    -0.550 OA
ATOM     11  O   UNL     1      12.527  34.428  26.552  1.00  0.00    -0.550 OA
ENDBRANCH   8   9
ENDBRANCH   7   8
ENDBRANCH   6   7
ENDBRANCH   5   6
ENDBRANCH   4   5
ENDBRANCH   3   4
ENDBRANCH   2   3
ENDBRANCH   1   2
BRANCH   1  12
ATOM     12  C   UNL     1       6.060  31.739  20.195  1.00  0.00     0.000 C 
BRANCH  12  13
ATOM     13  C   UNL     1       5.194  32.127  18.997  1.00  0.00    -0.000 C 
BRANCH  13  14
ATOM     14  C   UNL     1       5.303  31.148  17.824  1.00  0.00    -0.000 C 
BRANCH  14  15
ATOM     15  C   UNL     1       6.004  29.819  18.128  1.00  0.00    -0.000 C 
BRANCH  15  16
ATOM     16  C   UNL     1       7.174  29.459  17.206  1.00  0.00    -0.000 C 
BRANCH  16  17
ATOM     17  C   UNL     1       8.046  30.661  16.834  1.00  0.00    -0.000 C 
BRANCH  17  18
ATOM     18  C   UNL     1       9.242  30.791  17.780  1.00  0.00    -0.000 C 
BRANCH  18  19
ATOM     19  C   UNL     1       9.294  32.135  18.510  1.00  0.00    -0.003 C 
ATOM     20  C   UNL     1       8.542  33.246  17.791  1.00  0.00     0.004 C 
ENDBRANCH  18  19
ENDBRANCH  17  18
ENDBRANCH  16  17
ENDBRANCH  15  16
ENDBRANCH  14  15
ENDBRANCH  13  14
ENDBRANCH  12  13
ENDBRANCH   1  12
TORSDOF 16
ENDMDL
MODEL 7
REMARK VINA RESULT:    -6.161      2.447      6.713
REMARK INTER + INTRA:         -13.242
REMARK INTER:                 -11.949
REMARK INTRA:                  -1.293
REMARK UNBOUND:                -1.319
REMARK SMILES CCCCCCCCCCCCCCCCCC(=O)[O-]
REMARK SMILES IDX 10 1 11 2 12 3 13 4 14 5 15 6 16 7 17 8 18 9 19 10 20 11
REMARK SMILES IDX 9 12 8 13 7 14 6 15 5 16 4 17 3 18 2 19 1 20
REMARK H PARENT
REMARK INDEX MAP 4 1 6 2 8 3 10 4 12 5 14 6 16 7 18 8 20 9 2 10 1 11 3 12 5 13
REMARK INDEX MAP 7 14 9 15 11 16 13 17 15 18 17 19 19 20
ROOT
ATOM      1  C   UNL     1       5.580  32.530  21.636  1.00  0.00     0.000 C 
ENDROOT
BRANCH   1   2
ATOM      2  C   UNL     1       6.113  31.787  20.404  1.00  0.00     0.000 C 
BRANCH   2   3
ATOM      3  C   UNL     1       5.366  32.158  19.120  1.00  0.00     0.000 C 
BRANCH   3   4
ATOM      4  C   UNL     1       5.158  30.973  18.170  1.00  0.00     0.000 C 
BRANCH   4   5
ATOM      5  C   UNL     1       6.147  29.812  18.319  1.00  0.00     0.000 C 
BRANCH   5   6
ATOM      6  C   UNL     1       7.035  29.530  17.103  1.00  0.00     0.000 C 
BRANCH   6   7
ATOM      7  C   UNL     1       8.518  29.823  17.344  1.00  0.00     0.006 C 
BRANCH   7   8
ATOM      8  C   UNL     1       8.802  31.320  17.450  1.00  0.00     0.053 C 
BRANCH   8   9
ATOM      9  C   UNL     1       9.836  31.643  18.493  1.00  0.00     0.041 C 
ATOM     10  O   UNL     1      10.023  31.034  19.532  1.00  0.00    -0.550 OA
ATOM     11  O   UNL     1      10.604  32.699  18.168  1.00  0.00    -0.550 OA
ENDBRANCH   8   9
ENDBRANCH   7   8
ENDBRANCH   6   7
ENDBRANCH   5   6
ENDBRANCH   4   5
ENDBRANCH   3   4
ENDBRANCH   2   3
ENDBRANCH   1   2
BRANCH   1  12
ATOM     12  C   UNL     1       6.645  33.256  22.467  1.00  0.00     0.000 C 
BRANCH  12  13
ATOM     13  C   UNL     1       8.068  33.114  21.932  1.00  0.00    -0.000 C 
BRANCH  13  14
ATOM     14  C   UNL     1       9.140  33.176  23.024  1.00  0.00    -0.000 C 
BRANCH  14  15
ATOM     15  C   UNL     1      10.281  32.162  22.897  1.00  0.00    -0.000 C 
BRANCH  15  16
ATOM     16  C   UNL     1      11.386  32.268  23.953  1.00  0.00    -0.000 C 
BRANCH  16  17
ATOM     17  C   UNL     1      10.923  32.932  25.252  1.00  0.00    -0.000 C 
BRANCH  17  18
ATOM     18  C   UNL     1      12.115  33.315  26.133  1.00  0.00    -0.000 C 
BRANCH  18  19
ATOM     19  C   UNL     1      11.895  34.608  26.922  1.00  0.00    -0.003 C 
ATOM     20  C   UNL     1      10.568  35.287  26.618  1.00  0.00     0.004 C 
ENDBRANCH  18  19
ENDBRANCH  17  18
ENDBRANCH  16  17
ENDBRANCH  15  16
ENDBRANCH  14  15
ENDBRANCH  13  14
ENDBRANCH  12  13
ENDBRANCH   1  12
TORSDOF 16
ENDMDL
MODEL 8
REMARK VINA RESULT:    -6.125      3.326      5.584
REMARK INTER + INTRA:         -13.173
REMARK INTER:                 -11.051
REMARK INTRA:                  -2.122
REMARK UNBOUND:                -1.319
REMARK SMILES CCCCCCCCCCCCCCCCCC(=O)[O-]
REMARK SMILES IDX 10 1 11 2 12 3 13 4 14 5 15 6 16 7 17 8 18 9 19 10 20 11
REMARK SMILES IDX 9 12 8 13 7 14 6 15 5 16 4 17 3 18 2 19 1 20
REMARK H PARENT
REMARK INDEX MAP 4 1 6 2 8 3 10 4 12 5 14 6 16 7 18 8 20 9 2 10 1 11 3 12 5 13
REMARK INDEX MAP 7 14 9 15 11 16 13 17 15 18 17 19 19 20
ROOT
ATOM      1  C   UNL     1      10.462  31.458  22.133  1.00  0.00     0.000 C 
ENDROOT
BRANCH   1   2
ATOM      2  C   UNL     1      10.470  32.397  23.346  1.00  0.00     0.000 C 
BRANCH   2   3
ATOM      3  C   UNL     1       9.264  33.342  23.370  1.00  0.00     0.000 C 
BRANCH   3   4
ATOM      4  C   UNL     1       8.254  33.071  22.250  1.00  0.00     0.000 C 
BRANCH   4   5
ATOM      5  C   UNL     1       6.785  33.348  22.588  1.00  0.00     0.000 C 
BRANCH   5   6
ATOM      6  C   UNL     1       5.751  32.637  21.709  1.00  0.00     0.000 C 
BRANCH   6   7
ATOM      7  C   UNL     1       6.369  31.835  20.561  1.00  0.00     0.006 C 
BRANCH   7   8
ATOM      8  C   UNL     1       5.565  31.964  19.269  1.00  0.00     0.053 C 
BRANCH   8   9
ATOM      9  C   UNL     1       5.194  30.630  18.681  1.00  0.00     0.041 C 
ATOM     10  O   UNL     1       5.540  29.539  19.100  1.00  0.00    -0.550 OA
ATOM     11  O   UNL     1       4.387  30.730  17.609  1.00  0.00    -0.550 OA
ENDBRANCH   8   9
ENDBRANCH   7   8
ENDBRANCH   6   7
ENDBRANCH   5   6
ENDBRANCH   4   5
ENDBRANCH   3   4
ENDBRANCH   2   3
ENDBRANCH   1   2
BRANCH   1  12
ATOM     12  C   UNL     1      11.772  31.415  21.336  1.00  0.00     0.000 C 
BRANCH  12  13
ATOM     13  C   UNL     1      11.593  31.540  19.824  1.00  0.00    -0.000 C 
BRANCH  13  14
ATOM     14  C   UNL     1      10.127  31.578  19.384  1.00  0.00    -0.000 C 
BRANCH  14  15
ATOM     15  C   UNL     1       9.700  32.817  18.590  1.00  0.00    -0.000 C 
BRANCH  15  16
ATOM     16  C   UNL     1      10.340  32.973  17.207  1.00  0.00    -0.000 C 
BRANCH  16  17
ATOM     17  C   UNL     1       9.350  32.786  16.055  1.00  0.00    -0.000 C 
BRANCH  17  18
ATOM     18  C   UNL     1       8.148  31.943  16.489  1.00  0.00    -0.000 C 
BRANCH  18  19
ATOM     19  C   UNL     1       8.233  30.485  16.031  1.00  0.00    -0.003 C 
ATOM     20  C   UNL     1       8.377  29.495  17.177  1.00  0.00     0.004 C 
ENDBRANCH  18  19
ENDBRANCH  17  18
ENDBRANCH  16  17
ENDBRANCH  15  16
ENDBRANCH  14  15
ENDBRANCH  13  14
ENDBRANCH  12  13
ENDBRANCH   1  12
TORSDOF 16
ENDMDL
MODEL 9
REMARK VINA RESULT:    -6.112      3.511      8.307
REMARK INTER + INTRA:         -13.148
REMARK INTER:                 -11.791
REMARK INTRA:                  -1.357
REMARK UNBOUND:                -1.319
REMARK SMILES CCCCCCCCCCCCCCCCCC(=O)[O-]
REMARK SMILES IDX 10 1 11 2 12 3 13 4 14 5 15 6 16 7 17 8 18 9 19 10 20 11
REMARK SMILES IDX 9 12 8 13 7 14 6 15 5 16 4 17 3 18 2 19 1 20
REMARK H PARENT
REMARK INDEX MAP 4 1 6 2 8 3 10 4 12 5 14 6 16 7 18 8 20 9 2 10 1 11 3 12 5 13
REMARK INDEX MAP 7 14 9 15 11 16 13 17 15 18 17 19 19 20
ROOT
ATOM      1  C   UNL     1       9.894  31.837  20.666  1.00  0.00     0.000 C 
ENDROOT
BRANCH   1   2
ATOM      2  C   UNL     1      11.206  31.511  19.941  1.00  0.00     0.000 C 
BRANCH   2   3
ATOM      3  C   UNL     1      11.072  31.582  18.416  1.00  0.00     0.000 C 
BRANCH   3   4
ATOM      4  C   UNL     1      10.819  32.999  17.891  1.00  0.00     0.000 C 
BRANCH   4   5
ATOM      5  C   UNL     1       9.415  33.271  17.342  1.00  0.00     0.000 C 
BRANCH   5   6
ATOM      6  C   UNL     1       9.114  32.689  15.957  1.00  0.00     0.000 C 
BRANCH   6   7
ATOM      7  C   UNL     1       8.354  31.360  16.001  1.00  0.00     0.006 C 
BRANCH   7   8
ATOM      8  C   UNL     1       7.458  31.248  17.233  1.00  0.00     0.053 C 
BRANCH   8   9
ATOM      9  C   UNL     1       7.714  29.994  18.024  1.00  0.00     0.041 C 
ATOM     10  O   UNL     1       7.154  29.669  19.057  1.00  0.00    -0.550 OA
ATOM     11  O   UNL     1       8.645  29.198  17.467  1.00  0.00    -0.550 OA
ENDBRANCH   8   9
ENDBRANCH   7   8
ENDBRANCH   6   7
ENDBRANCH   5   6
ENDBRANCH   4   5
ENDBRANCH   3   4
ENDBRANCH   2   3
ENDBRANCH   1   2
BRANCH   1  12
ATOM     12  C   UNL     1      10.035  32.126  22.166  1.00  0.00     0.000 C 
BRANCH  12  13
ATOM     13  C   UNL     1      11.453  31.957  22.709  1.00  0.00    -0.000 C 
BRANCH  13  14
ATOM     14  C   UNL     1      11.569  32.244  24.210  1.00  0.00    -0.000 C 
BRANCH  14  15
ATOM     15  C   UNL     1      10.342  32.890  24.861  1.00  0.00    -0.000 C 
BRANCH  15  16
ATOM     16  C   UNL     1      10.478  33.224  26.350  1.00  0.00    -0.000 C 
BRANCH  16  17
ATOM     17  C   UNL     1      10.866  34.681  26.614  1.00  0.00    -0.000 C 
BRANCH  17  18
ATOM     18  C   UNL     1      12.332  34.795  27.039  1.00  0.00    -0.000 C 
BRANCH  18  19
ATOM     19  C   UNL     1      12.740  33.761  28.091  1.00  0.00    -0.003 C 
ATOM     20  C   UNL     1      12.285  34.114  29.499  1.00  0.00     0.004 C 
ENDBRANCH  18  19
ENDBRANCH  17  18
ENDBRANCH  16  17
ENDBRANCH  15  16
ENDBRANCH  14  15
ENDBRANCH  13  14
ENDBRANCH  12  13
ENDBRANCH   1  12
TORSDOF 16
ENDMDL
MODEL 10
REMARK VINA RESULT:    -6.056      3.379      5.368
REMARK INTER + INTRA:         -13.040
REMARK INTER:                 -12.085
REMARK INTRA:                  -0.955
REMARK UNBOUND:                -1.319
REMARK SMILES CCCCCCCCCCCCCCCCCC(=O)[O-]
REMARK SMILES IDX 10 1 11 2 12 3 13 4 14 5 15 6 16 7 17 8 18 9 19 10 20 11
REMARK SMILES IDX 9 12 8 13 7 14 6 15 5 16 4 17 3 18 2 19 1 20
REMARK H PARENT
REMARK INDEX MAP 4 1 6 2 8 3 10 4 12 5 14 6 16 7 18 8 20 9 2 10 1 11 3 12 5 13
REMARK INDEX MAP 7 14 9 15 11 16 13 17 15 18 17 19 19 20
ROOT
ATOM      1  C   UNL     1      11.398  31.524  22.010  1.00  0.00     0.000 C 
ENDROOT
BRANCH   1   2
ATOM      2  C   UNL     1      10.524  32.247  23.043  1.00  0.00     0.000 C 
BRANCH   2   3
ATOM      3  C   UNL     1      11.125  32.215  24.452  1.00  0.00     0.000 C 
BRANCH   3   4
ATOM      4  C   UNL     1      10.393  33.121  25.448  1.00  0.00     0.000 C 
BRANCH   4   5
ATOM      5  C   UNL     1      11.281  33.978  26.355  1.00  0.00     0.000 C 
BRANCH   5   6
ATOM      6  C   UNL     1      12.198  33.209  27.312  1.00  0.00     0.000 C 
BRANCH   6   7
ATOM      7  C   UNL     1      12.124  33.701  28.761  1.00  0.00     0.006 C 
BRANCH   7   8
ATOM      8  C   UNL     1      13.267  34.652  29.107  1.00  0.00     0.053 C 
BRANCH   8   9
ATOM      9  C   UNL     1      14.114  34.152  30.245  1.00  0.00     0.041 C 
ATOM     10  O   UNL     1      14.355  34.752  31.278  1.00  0.00    -0.550 OA
ATOM     11  O   UNL     1      14.597  32.913  30.041  1.00  0.00    -0.550 OA
ENDBRANCH   8   9
ENDBRANCH   7   8
ENDBRANCH   6   7
ENDBRANCH   5   6
ENDBRANCH   4   5
ENDBRANCH   3   4
ENDBRANCH   2   3
ENDBRANCH   1   2
BRANCH   1  12
ATOM     12  C   UNL     1      10.804  31.443  20.599  1.00  0.00     0.000 C 
BRANCH  12  13
ATOM     13  C   UNL     1       9.304  31.728  20.529  1.00  0.00    -0.000 C 
BRANCH  13  14
ATOM     14  C   UNL     1       8.778  31.879  19.099  1.00  0.00    -0.000 C 
BRANCH  14  15
ATOM     15  C   UNL     1       9.358  30.903  18.069  1.00  0.00    -0.000 C 
BRANCH  15  16
ATOM     16  C   UNL     1       8.335  30.197  17.173  1.00  0.00    -0.000 C 
BRANCH  16  17
ATOM     17  C   UNL     1       7.149  29.615  17.946  1.00  0.00    -0.000 C 
BRANCH  17  18
ATOM     18  C   UNL     1       5.834  29.845  17.197  1.00  0.00    -0.000 C 
BRANCH  18  19
ATOM     19  C   UNL     1       5.043  31.048  17.717  1.00  0.00    -0.003 C 
ATOM     20  C   UNL     1       5.174  31.258  19.219  1.00  0.00     0.004 C 
ENDBRANCH  18  19
ENDBRANCH  17  18
ENDBRANCH  16  17
ENDBRANCH  15  16
ENDBRANCH  14  15
ENDBRANCH  13  14
ENDBRANCH  12  13
ENDBRANCH   1  12
TORSDOF 16
ENDMDL
MODEL 11
REMARK VINA RESULT:    -6.045      3.829      8.048
REMARK INTER + INTRA:         -13.017
REMARK INTER:                 -11.672
REMARK INTRA:                  -1.345
REMARK UNBOUND:                -1.319
REMARK SMILES CCCCCCCCCCCCCCCCCC(=O)[O-]
REMARK SMILES IDX 10 1 11 2 12 3 13 4 14 5 15 6 16 7 17 8 18 9 19 10 20 11
REMARK SMILES IDX 9 12 8 13 7 14 6 15 5 16 4 17 3 18 2 19 1 20
REMARK H PARENT
REMARK INDEX MAP 4 1 6 2 8 3 10 4 12 5 14 6 16 7 18 8 20 9 2 10 1 11 3 12 5 13
REMARK INDEX MAP 7 14 9 15 11 16 13 17 15 18 17 19 19 20
ROOT
ATOM      1  C   UNL     1       9.391  32.078  18.583  1.00  0.00     0.000 C 
ENDROOT
BRANCH   1   2
ATOM      2  C   UNL     1       9.520  32.147  17.056  1.00  0.00     0.000 C 
BRANCH   2   3
ATOM      3  C   UNL     1       8.546  31.210  16.336  1.00  0.00     0.000 C 
BRANCH   3   4
ATOM      4  C   UNL     1       8.083  30.031  17.199  1.00  0.00     0.000 C 
BRANCH   4   5
ATOM      5  C   UNL     1       6.575  29.935  17.452  1.00  0.00     0.000 C 
BRANCH   5   6
ATOM      6  C   UNL     1       6.098  30.398  18.832  1.00  0.00     0.000 C 
BRANCH   6   7
ATOM      7  C   UNL     1       5.187  31.628  18.787  1.00  0.00     0.006 C 
BRANCH   7   8
ATOM      8  C   UNL     1       4.622  31.877  17.390  1.00  0.00     0.053 C 
BRANCH   8   9
ATOM      9  C   UNL     1       4.856  33.284  16.912  1.00  0.00     0.041 C 
ATOM     10  O   UNL     1       4.009  34.046  16.479  1.00  0.00    -0.550 OA
ATOM     11  O   UNL     1       6.138  33.675  17.025  1.00  0.00    -0.550 OA
ENDBRANCH   8   9
ENDBRANCH   7   8
ENDBRANCH   6   7
ENDBRANCH   5   6
ENDBRANCH   4   5
ENDBRANCH   3   4
ENDBRANCH   2   3
ENDBRANCH   1   2
BRANCH   1  12
ATOM     12  C   UNL     1      10.657  31.628  19.322  1.00  0.00     0.000 C 
BRANCH  12  13
ATOM     13  C   UNL     1      10.527  31.613  20.844  1.00  0.00    -0.000 C 
BRANCH  13  14
ATOM     14  C   UNL     1      11.863  31.427  21.569  1.00  0.00    -0.000 C 
BRANCH  14  15
ATOM     15  C   UNL     1      11.910  31.925  23.018  1.00  0.00    -0.000 C 
BRANCH  15  16
ATOM     16  C   UNL     1      10.554  32.238  23.657  1.00  0.00    -0.000 C 
BRANCH  16  17
ATOM     17  C   UNL     1      10.663  32.747  25.097  1.00  0.00    -0.000 C 
BRANCH  17  18
ATOM     18  C   UNL     1      12.111  33.100  25.450  1.00  0.00    -0.000 C 
BRANCH  18  19
ATOM     19  C   UNL     1      12.225  34.160  26.548  1.00  0.00    -0.003 C 
ATOM     20  C   UNL     1      10.989  35.037  26.677  1.00  0.00     0.004 C 
ENDBRANCH  18  19
ENDBRANCH  17  18
ENDBRANCH  16  17
ENDBRANCH  15  16
ENDBRANCH  14  15
ENDBRANCH  13  14
ENDBRANCH  12  13
ENDBRANCH   1  12
TORSDOF 16
ENDMDL
MODEL 12
REMARK VINA RESULT:    -6.029      4.765      9.698
REMARK INTER + INTRA:         -12.988
REMARK INTER:                 -11.715
REMARK INTRA:                  -1.273
REMARK UNBOUND:                -1.319
REMARK SMILES CCCCCCCCCCCCCCCCCC(=O)[O-]
REMARK SMILES IDX 10 1 11 2 12 3 13 4 14 5 15 6 16 7 17 8 18 9 19 10 20 11
REMARK SMILES IDX 9 12 8 13 7 14 6 15 5 16 4 17 3 18 2 19 1 20
REMARK H PARENT
REMARK INDEX MAP 4 1 6 2 8 3 10 4 12 5 14 6 16 7 18 8 20 9 2 10 1 11 3 12 5 13
REMARK INDEX MAP 7 14 9 15 11 16 13 17 15 18 17 19 19 20
ROOT
ATOM      1  C   UNL     1      10.438  32.618  24.421  1.00  0.00     0.000 C 
ENDROOT
BRANCH   1   2
ATOM      2  C   UNL     1      11.636  32.174  23.571  1.00  0.00     0.000 C 
BRANCH   2   3
ATOM      3  C   UNL     1      11.243  31.820  22.134  1.00  0.00     0.000 C 
BRANCH   3   4
ATOM      4  C   UNL     1       9.807  32.219  21.778  1.00  0.00     0.000 C 
BRANCH   4   5
ATOM      5  C   UNL     1       9.192  31.505  20.570  1.00  0.00     0.000 C 
BRANCH   5   6
ATOM      6  C   UNL     1       9.923  31.695  19.237  1.00  0.00     0.000 C 
BRANCH   6   7
ATOM      7  C   UNL     1       9.015  31.557  18.012  1.00  0.00     0.006 C 
BRANCH   7   8
ATOM      8  C   UNL     1       8.957  30.121  17.495  1.00  0.00     0.053 C 
BRANCH   8   9
ATOM      9  C   UNL     1       7.604  29.491  17.684  1.00  0.00     0.041 C 
ATOM     10  O   UNL     1       7.078  29.224  18.751  1.00  0.00    -0.550 OA
ATOM     11  O   UNL     1       6.966  29.249  16.525  1.00  0.00    -0.550 OA
ENDBRANCH   8   9
ENDBRANCH   7   8
ENDBRANCH   6   7
ENDBRANCH   5   6
ENDBRANCH   4   5
ENDBRANCH   3   4
ENDBRANCH   2   3
ENDBRANCH   1   2
BRANCH   1  12
ATOM     12  C   UNL     1      10.756  32.901  25.894  1.00  0.00     0.000 C 
BRANCH  12  13
ATOM     13  C   UNL     1      12.188  33.365  26.152  1.00  0.00    -0.000 C 
BRANCH  13  14
ATOM     14  C   UNL     1      12.271  34.700  26.900  1.00  0.00    -0.000 C 
BRANCH  14  15
ATOM     15  C   UNL     1      10.934  35.286  27.366  1.00  0.00    -0.000 C 
BRANCH  15  16
ATOM     16  C   UNL     1      10.702  35.288  28.881  1.00  0.00    -0.000 C 
BRANCH  16  17
ATOM     17  C   UNL     1      11.264  34.050  29.584  1.00  0.00    -0.000 C 
BRANCH  17  18
ATOM     18  C   UNL     1      12.084  34.438  30.816  1.00  0.00    -0.000 C 
BRANCH  18  19
ATOM     19  C   UNL     1      13.590  34.500  30.547  1.00  0.00    -0.003 C 
ATOM     20  C   UNL     1      14.150  33.227  29.930  1.00  0.00     0.004 C 
ENDBRANCH  18  19
ENDBRANCH  17  18
ENDBRANCH  16  17
ENDBRANCH  15  16
ENDBRANCH  14  15
ENDBRANCH  13  14
ENDBRANCH  12  13
ENDBRANCH   1  12
TORSDOF 16
ENDMDL
MODEL 13
REMARK VINA RESULT:    -6.022      2.209      4.116
REMARK INTER + INTRA:         -12.973
REMARK INTER:                 -11.419
REMARK INTRA:                  -1.555
REMARK UNBOUND:                -1.319
REMARK SMILES CCCCCCCCCCCCCCCCCC(=O)[O-]
REMARK SMILES IDX 10 1 11 2 12 3 13 4 14 5 15 6 16 7 17 8 18 9 19 10 20 11
REMARK SMILES IDX 9 12 8 13 7 14 6 15 5 16 4 17 3 18 2 19 1 20
REMARK H PARENT
REMARK INDEX MAP 4 1 6 2 8 3 10 4 12 5 14 6 16 7 18 8 20 9 2 10 1 11 3 12 5 13
REMARK INDEX MAP 7 14 9 15 11 16 13 17 15 18 17 19 19 20
ROOT
ATOM      1  C   UNL     1      10.904  32.000  18.612  1.00  0.00     0.000 C 
ENDROOT
BRANCH   1   2
ATOM      2  C   UNL     1       9.817  31.471  19.556  1.00  0.00     0.000 C 
BRANCH   2   3
ATOM      3  C   UNL     1       9.818  32.177  20.915  1.00  0.00     0.000 C 
BRANCH   3   4
ATOM      4  C   UNL     1      10.467  31.352  22.031  1.00  0.00     0.000 C 
BRANCH   4   5
ATOM      5  C   UNL     1      10.835  32.118  23.306  1.00  0.00     0.000 C 
BRANCH   5   6
ATOM      6  C   UNL     1      12.328  32.174  23.645  1.00  0.00     0.000 C 
BRANCH   6   7
ATOM      7  C   UNL     1      12.645  33.024  24.879  1.00  0.00     0.006 C 
BRANCH   7   8
ATOM      8  C   UNL     1      11.463  33.109  25.842  1.00  0.00     0.053 C 
BRANCH   8   9
ATOM      9  C   UNL     1      11.863  33.590  27.210  1.00  0.00     0.041 C 
ATOM     10  O   UNL     1      11.526  34.640  27.729  1.00  0.00    -0.550 OA
ATOM     11  O   UNL     1      12.646  32.717  27.870  1.00  0.00    -0.550 OA
ENDBRANCH   8   9
ENDBRANCH   7   8
ENDBRANCH   6   7
ENDBRANCH   5   6
ENDBRANCH   4   5
ENDBRANCH   3   4
ENDBRANCH   2   3
ENDBRANCH   1   2
BRANCH   1  12
ATOM     12  C   UNL     1      10.390  32.580  17.288  1.00  0.00     0.000 C 
BRANCH  12  13
ATOM     13  C   UNL     1       9.152  33.464  17.426  1.00  0.00    -0.000 C 
BRANCH  13  14
ATOM     14  C   UNL     1       7.960  32.977  16.597  1.00  0.00    -0.000 C 
BRANCH  14  15
ATOM     15  C   UNL     1       6.576  33.251  17.195  1.00  0.00    -0.000 C 
BRANCH  15  16
ATOM     16  C   UNL     1       6.043  32.183  18.155  1.00  0.00    -0.000 C 
BRANCH  16  17
ATOM     17  C   UNL     1       5.051  31.218  17.501  1.00  0.00    -0.000 C 
BRANCH  17  18
ATOM     18  C   UNL     1       5.681  29.839  17.287  1.00  0.00    -0.000 C 
BRANCH  18  19
ATOM     19  C   UNL     1       6.981  29.638  18.069  1.00  0.00    -0.003 C 
ATOM     20  C   UNL     1       8.167  29.265  17.192  1.00  0.00     0.004 C 
ENDBRANCH  18  19
ENDBRANCH  17  18
ENDBRANCH  16  17
ENDBRANCH  15  16
ENDBRANCH  14  15
ENDBRANCH  13  14
ENDBRANCH  12  13
ENDBRANCH   1  12
TORSDOF 16
ENDMDL
MODEL 14
REMARK VINA RESULT:    -5.987      4.744      9.717
REMARK INTER + INTRA:         -12.906
REMARK INTER:                 -11.526
REMARK INTRA:                  -1.380
REMARK UNBOUND:                -1.319
REMARK SMILES CCCCCCCCCCCCCCCCCC(=O)[O-]
REMARK SMILES IDX 10 1 11 2 12 3 13 4 14 5 15 6 16 7 17 8 18 9 19 10 20 11
REMARK SMILES IDX 9 12 8 13 7 14 6 15 5 16 4 17 3 18 2 19 1 20
REMARK H PARENT
REMARK INDEX MAP 4 1 6 2 8 3 10 4 12 5 14 6 16 7 18 8 20 9 2 10 1 11 3 12 5 13
REMARK INDEX MAP 7 14 9 15 11 16 13 17 15 18 17 19 19 20
ROOT
ATOM      1  C   UNL     1      10.490  32.628  25.043  1.00  0.00     0.000 C 
ENDROOT
BRANCH   1   2
ATOM      2  C   UNL     1      11.860  32.305  24.433  1.00  0.00     0.000 C 
BRANCH   2   3
ATOM      3  C   UNL     1      11.808  32.152  22.910  1.00  0.00     0.000 C 
BRANCH   3   4
ATOM      4  C   UNL     1      10.400  32.317  22.328  1.00  0.00     0.000 C 
BRANCH   4   5
ATOM      5  C   UNL     1      10.088  31.486  21.079  1.00  0.00     0.000 C 
BRANCH   5   6
ATOM      6  C   UNL     1       8.902  31.967  20.235  1.00  0.00     0.000 C 
BRANCH   6   7
ATOM      7  C   UNL     1       8.713  31.178  18.936  1.00  0.00     0.006 C 
BRANCH   7   8
ATOM      8  C   UNL     1       9.914  31.309  18.002  1.00  0.00     0.053 C 
BRANCH   8   9
ATOM      9  C   UNL     1       9.946  32.627  17.279  1.00  0.00     0.041 C 
ATOM     10  O   UNL     1       9.131  33.018  16.461  1.00  0.00    -0.550 OA
ATOM     11  O   UNL     1      10.986  33.402  17.636  1.00  0.00    -0.550 OA
ENDBRANCH   8   9
ENDBRANCH   7   8
ENDBRANCH   6   7
ENDBRANCH   5   6
ENDBRANCH   4   5
ENDBRANCH   3   4
ENDBRANCH   2   3
ENDBRANCH   1   2
BRANCH   1  12
ATOM     12  C   UNL     1      10.532  33.202  26.465  1.00  0.00     0.000 C 
BRANCH  12  13
ATOM     13  C   UNL     1      11.169  34.586  26.568  1.00  0.00    -0.000 C 
BRANCH  13  14
ATOM     14  C   UNL     1      12.603  34.559  27.104  1.00  0.00    -0.000 C 
BRANCH  14  15
ATOM     15  C   UNL     1      13.097  35.857  27.751  1.00  0.00    -0.000 C 
BRANCH  15  16
ATOM     16  C   UNL     1      13.320  35.802  29.266  1.00  0.00    -0.000 C 
BRANCH  16  17
ATOM     17  C   UNL     1      12.838  34.497  29.904  1.00  0.00    -0.000 C 
BRANCH  17  18
ATOM     18  C   UNL     1      11.703  34.753  30.899  1.00  0.00    -0.000 C 
BRANCH  18  19
ATOM     19  C   UNL     1      10.311  34.644  30.272  1.00  0.00    -0.003 C 
ATOM     20  C   UNL     1       9.711  35.988  29.888  1.00  0.00     0.004 C 
ENDBRANCH  18  19
ENDBRANCH  17  18
ENDBRANCH  16  17
ENDBRANCH  15  16
ENDBRANCH  14  15
ENDBRANCH  13  14
ENDBRANCH  12  13
ENDBRANCH   1  12
TORSDOF 16
ENDMDL
MODEL 15
REMARK VINA RESULT:    -5.984      3.501      8.171
REMARK INTER + INTRA:         -12.901
REMARK INTER:                 -11.830
REMARK INTRA:                  -1.071
REMARK UNBOUND:                -1.319
REMARK SMILES CCCCCCCCCCCCCCCCCC(=O)[O-]
REMARK SMILES IDX 10 1 11 2 12 3 13 4 14 5 15 6 16 7 17 8 18 9 19 10 20 11
REMARK SMILES IDX 9 12 8 13 7 14 6 15 5 16 4 17 3 18 2 19 1 20
REMARK H PARENT
REMARK INDEX MAP 4 1 6 2 8 3 10 4 12 5 14 6 16 7 18 8 20 9 2 10 1 11 3 12 5 13
REMARK INDEX MAP 7 14 9 15 11 16 13 17 15 18 17 19 19 20
ROOT
ATOM      1  C   UNL     1       9.164  31.500  20.045  1.00  0.00     0.000 C 
ENDROOT
BRANCH   1   2
ATOM      2  C   UNL     1       9.047  31.798  18.544  1.00  0.00     0.000 C 
BRANCH   2   3
ATOM      3  C   UNL     1       9.343  30.573  17.673  1.00  0.00     0.000 C 
BRANCH   3   4
ATOM      4  C   UNL     1       8.193  30.203  16.730  1.00  0.00     0.000 C 
BRANCH   4   5
ATOM      5  C   UNL     1       6.929  29.650  17.395  1.00  0.00     0.000 C 
BRANCH   5   6
ATOM      6  C   UNL     1       5.604  30.001  16.709  1.00  0.00     0.000 C 
BRANCH   6   7
ATOM      7  C   UNL     1       4.667  30.845  17.578  1.00  0.00     0.006 C 
BRANCH   7   8
ATOM      8  C   UNL     1       5.431  31.803  18.489  1.00  0.00     0.053 C 
BRANCH   8   9
ATOM      9  C   UNL     1       5.278  31.464  19.946  1.00  0.00     0.041 C 
ATOM     10  O   UNL     1       5.605  32.168  20.886  1.00  0.00    -0.550 OA
ATOM     11  O   UNL     1       4.697  30.268  20.153  1.00  0.00    -0.550 OA
ENDBRANCH   8   9
ENDBRANCH   7   8
ENDBRANCH   6   7
ENDBRANCH   5   6
ENDBRANCH   4   5
ENDBRANCH   3   4
ENDBRANCH   2   3
ENDBRANCH   1   2
BRANCH   1  12
ATOM     12  C   UNL     1      10.540  31.786  20.659  1.00  0.00     0.000 C 
BRANCH  12  13
ATOM     13  C   UNL     1      10.645  31.461  22.148  1.00  0.00    -0.000 C 
BRANCH  13  14
ATOM     14  C   UNL     1      11.946  31.955  22.789  1.00  0.00    -0.000 C 
BRANCH  14  15
ATOM     15  C   UNL     1      11.882  32.231  24.295  1.00  0.00    -0.000 C 
BRANCH  15  16
ATOM     16  C   UNL     1      10.542  32.758  24.818  1.00  0.00    -0.000 C 
BRANCH  16  17
ATOM     17  C   UNL     1      10.632  33.361  26.222  1.00  0.00    -0.000 C 
BRANCH  17  18
ATOM     18  C   UNL     1      12.046  33.871  26.515  1.00  0.00    -0.000 C 
BRANCH  18  19
ATOM     19  C   UNL     1      12.621  33.339  27.830  1.00  0.00    -0.003 C 
ATOM     20  C   UNL     1      12.501  34.320  28.987  1.00  0.00     0.004 C 
ENDBRANCH  18  19
ENDBRANCH  17  18
ENDBRANCH  16  17
ENDBRANCH  15  16
ENDBRANCH  14  15
ENDBRANCH  13  14
ENDBRANCH  12  13
ENDBRANCH   1  12
TORSDOF 16
ENDMDL
MODEL 16
REMARK VINA RESULT:    -5.961      4.754      9.553
REMARK INTER + INTRA:         -12.855
REMARK INTER:                 -11.956
REMARK INTRA:                  -0.900
REMARK UNBOUND:                -1.319
REMARK SMILES CCCCCCCCCCCCCCCCCC(=O)[O-]
REMARK SMILES IDX 10 1 11 2 12 3 13 4 14 5 15 6 16 7 17 8 18 9 19 10 20 11
REMARK SMILES IDX 9 12 8 13 7 14 6 15 5 16 4 17 3 18 2 19 1 20
REMARK H PARENT
REMARK INDEX MAP 4 1 6 2 8 3 10 4 12 5 14 6 16 7 18 8 20 9 2 10 1 11 3 12 5 13
REMARK INDEX MAP 7 14 9 15 11 16 13 17 15 18 17 19 19 20
ROOT
ATOM      1  C   UNL     1      10.999  32.155  23.403  1.00  0.00     0.000 C 
ENDROOT
BRANCH   1   2
ATOM      2  C   UNL     1      11.048  31.565  21.987  1.00  0.00     0.000 C 
BRANCH   2   3
ATOM      3  C   UNL     1       9.763  31.821  21.194  1.00  0.00     0.000 C 
BRANCH   3   4
ATOM      4  C   UNL     1       9.948  31.704  19.678  1.00  0.00     0.000 C 
BRANCH   4   5
ATOM      5  C   UNL     1       8.683  31.401  18.868  1.00  0.00     0.000 C 
BRANCH   5   6
ATOM      6  C   UNL     1       8.860  30.448  17.682  1.00  0.00     0.000 C 
BRANCH   6   7
ATOM      7  C   UNL     1       7.757  30.568  16.627  1.00  0.00     0.006 C 
BRANCH   7   8
ATOM      8  C   UNL     1       6.674  29.506  16.800  1.00  0.00     0.053 C 
BRANCH   8   9
ATOM      9  C   UNL     1       5.572  29.947  17.724  1.00  0.00     0.041 C 
ATOM     10  O   UNL     1       4.614  30.638  17.422  1.00  0.00    -0.550 OA
ATOM     11  O   UNL     1       5.712  29.477  18.977  1.00  0.00    -0.550 OA
ENDBRANCH   8   9
ENDBRANCH   7   8
ENDBRANCH   6   7
ENDBRANCH   5   6
ENDBRANCH   4   5
ENDBRANCH   3   4
ENDBRANCH   2   3
ENDBRANCH   1   2
BRANCH   1  12
ATOM     12  C   UNL     1      12.350  32.225  24.125  1.00  0.00     0.000 C 
BRANCH  12  13
ATOM     13  C   UNL     1      12.294  32.879  25.504  1.00  0.00    -0.000 C 
BRANCH  13  14
ATOM     14  C   UNL     1      10.908  33.419  25.867  1.00  0.00    -0.000 C 
BRANCH  14  15
ATOM     15  C   UNL     1      10.885  34.784  26.563  1.00  0.00    -0.000 C 
BRANCH  15  16
ATOM     16  C   UNL     1      12.204  35.222  27.210  1.00  0.00    -0.000 C 
BRANCH  16  17
ATOM     17  C   UNL     1      12.061  35.599  28.686  1.00  0.00    -0.000 C 
BRANCH  17  18
ATOM     18  C   UNL     1      11.620  34.396  29.524  1.00  0.00    -0.000 C 
BRANCH  18  19
ATOM     19  C   UNL     1      10.450  34.706  30.460  1.00  0.00    -0.003 C 
ATOM     20  C   UNL     1       9.717  35.993  30.111  1.00  0.00     0.004 C 
ENDBRANCH  18  19
ENDBRANCH  17  18
ENDBRANCH  16  17
ENDBRANCH  15  16
ENDBRANCH  14  15
ENDBRANCH  13  14
ENDBRANCH  12  13
ENDBRANCH   1  12
TORSDOF 16
ENDMDL
MODEL 17
REMARK VINA RESULT:    -5.957      3.989      6.273
REMARK INTER + INTRA:         -12.848
REMARK INTER:                 -11.835
REMARK INTRA:                  -1.013
REMARK UNBOUND:                -1.319
REMARK SMILES CCCCCCCCCCCCCCCCCC(=O)[O-]
REMARK SMILES IDX 10 1 11 2 12 3 13 4 14 5 15 6 16 7 17 8 18 9 19 10 20 11
REMARK SMILES IDX 9 12 8 13 7 14 6 15 5 16 4 17 3 18 2 19 1 20
REMARK H PARENT
REMARK INDEX MAP 4 1 6 2 8 3 10 4 12 5 14 6 16 7 18 8 20 9 2 10 1 11 3 12 5 13
REMARK INDEX MAP 7 14 9 15 11 16 13 17 15 18 17 19 19 20
ROOT
ATOM      1  C   UNL     1      11.988  32.323  24.104  1.00  0.00     0.000 C 
ENDROOT
BRANCH   1   2
ATOM      2  C   UNL     1      12.329  32.958  25.458  1.00  0.00     0.000 C 
BRANCH   2   3
ATOM      3  C   UNL     1      11.101  33.545  26.162  1.00  0.00     0.000 C 
BRANCH   3   4
ATOM      4  C   UNL     1      11.359  34.914  26.800  1.00  0.00     0.000 C 
BRANCH   4   5
ATOM      5  C   UNL     1      12.814  35.219  27.171  1.00  0.00     0.000 C 
BRANCH   5   6
ATOM      6  C   UNL     1      13.022  36.006  28.469  1.00  0.00     0.000 C 
BRANCH   6   7
ATOM      7  C   UNL     1      12.105  35.561  29.611  1.00  0.00     0.006 C 
BRANCH   7   8
ATOM      8  C   UNL     1      12.453  34.164  30.121  1.00  0.00     0.053 C 
BRANCH   8   9
ATOM      9  C   UNL     1      13.903  34.028  30.495  1.00  0.00     0.041 C 
ATOM     10  O   UNL     1      14.528  34.771  31.233  1.00  0.00    -0.550 OA
ATOM     11  O   UNL     1      14.493  32.952  29.944  1.00  0.00    -0.550 OA
ENDBRANCH   8   9
ENDBRANCH   7   8
ENDBRANCH   6   7
ENDBRANCH   5   6
ENDBRANCH   4   5
ENDBRANCH   3   4
ENDBRANCH   2   3
ENDBRANCH   1   2
BRANCH   1  12
ATOM     12  C   UNL     1      10.490  32.185  23.809  1.00  0.00     0.000 C 
BRANCH  12  13
ATOM     13  C   UNL     1      10.090  32.563  22.384  1.00  0.00    -0.000 C 
BRANCH  13  14
ATOM     14  C   UNL     1      10.602  31.579  21.327  1.00  0.00    -0.000 C 
BRANCH  14  15
ATOM     15  C   UNL     1       9.811  31.540  20.015  1.00  0.00    -0.000 C 
BRANCH  15  16
ATOM     16  C   UNL     1       8.285  31.564  20.158  1.00  0.00    -0.000 C 
BRANCH  16  17
ATOM     17  C   UNL     1       7.555  31.814  18.836  1.00  0.00    -0.000 C 
BRANCH  17  18
ATOM     18  C   UNL     1       6.513  30.727  18.565  1.00  0.00    -0.000 C 
BRANCH  18  19
ATOM     19  C   UNL     1       7.085  29.507  17.839  1.00  0.00    -0.003 C 
ATOM     20  C   UNL     1       8.149  29.856  16.809  1.00  0.00     0.004 C 
ENDBRANCH  18  19
ENDBRANCH  17  18
ENDBRANCH  16  17
ENDBRANCH  15  16
ENDBRANCH  14  15
ENDBRANCH  13  14
ENDBRANCH  12  13
ENDBRANCH   1  12
TORSDOF 16
ENDMDL
MODEL 18
REMARK VINA RESULT:    -5.936      3.055      4.697
REMARK INTER + INTRA:         -12.808
REMARK INTER:                 -11.601
REMARK INTRA:                  -1.206
REMARK UNBOUND:                -1.319
REMARK SMILES CCCCCCCCCCCCCCCCCC(=O)[O-]
REMARK SMILES IDX 10 1 11 2 12 3 13 4 14 5 15 6 16 7 17 8 18 9 19 10 20 11
REMARK SMILES IDX 9 12 8 13 7 14 6 15 5 16 4 17 3 18 2 19 1 20
REMARK H PARENT
REMARK INDEX MAP 4 1 6 2 8 3 10 4 12 5 14 6 16 7 18 8 20 9 2 10 1 11 3 12 5 13
REMARK INDEX MAP 7 14 9 15 11 16 13 17 15 18 17 19 19 20
ROOT
ATOM      1  C   UNL     1      10.399  31.463  21.428  1.00  0.00     0.000 C 
ENDROOT
BRANCH   1   2
ATOM      2  C   UNL     1      10.134  32.496  22.531  1.00  0.00     0.000 C 
BRANCH   2   3
ATOM      3  C   UNL     1      10.886  32.183  23.828  1.00  0.00     0.000 C 
BRANCH   3   4
ATOM      4  C   UNL     1      10.317  32.907  25.053  1.00  0.00     0.000 C 
BRANCH   4   5
ATOM      5  C   UNL     1      11.311  33.201  26.181  1.00  0.00     0.000 C 
BRANCH   5   6
ATOM      6  C   UNL     1      11.494  34.679  26.543  1.00  0.00     0.000 C 
BRANCH   6   7
ATOM      7  C   UNL     1      12.672  34.940  27.486  1.00  0.00     0.006 C 
BRANCH   7   8
ATOM      8  C   UNL     1      12.266  34.846  28.955  1.00  0.00     0.053 C 
BRANCH   8   9
ATOM      9  C   UNL     1      13.110  33.871  29.729  1.00  0.00     0.041 C 
ATOM     10  O   UNL     1      13.330  33.902  30.927  1.00  0.00    -0.550 OA
ATOM     11  O   UNL     1      13.617  32.887  28.963  1.00  0.00    -0.550 OA
ENDBRANCH   8   9
ENDBRANCH   7   8
ENDBRANCH   6   7
ENDBRANCH   5   6
ENDBRANCH   4   5
ENDBRANCH   3   4
ENDBRANCH   2   3
ENDBRANCH   1   2
BRANCH   1  12
ATOM     12  C   UNL     1       9.450  31.539  20.226  1.00  0.00     0.000 C 
BRANCH  12  13
ATOM     13  C   UNL     1       8.002  31.870  20.586  1.00  0.00    -0.000 C 
BRANCH  13  14
ATOM     14  C   UNL     1       7.171  32.348  19.391  1.00  0.00    -0.000 C 
BRANCH  14  15
ATOM     15  C   UNL     1       5.727  31.838  19.338  1.00  0.00    -0.000 C 
BRANCH  15  16
ATOM     16  C   UNL     1       5.539  30.434  18.755  1.00  0.00    -0.000 C 
BRANCH  16  17
ATOM     17  C   UNL     1       5.949  30.326  17.284  1.00  0.00    -0.000 C 
BRANCH  17  18
ATOM     18  C   UNL     1       7.055  29.285  17.094  1.00  0.00    -0.000 C 
BRANCH  18  19
ATOM     19  C   UNL     1       8.453  29.899  16.986  1.00  0.00    -0.003 C 
ATOM     20  C   UNL     1       8.472  31.246  16.279  1.00  0.00     0.004 C 
ENDBRANCH  18  19
ENDBRANCH  17  18
ENDBRANCH  16  17
ENDBRANCH  15  16
ENDBRANCH  14  15
ENDBRANCH  13  14
ENDBRANCH  12  13
ENDBRANCH   1  12
TORSDOF 16
ENDMDL
MODEL 19
REMARK VINA RESULT:    -5.909      5.111      9.974
REMARK INTER + INTRA:         -12.755
REMARK INTER:                 -11.202
REMARK INTRA:                  -1.553
REMARK UNBOUND:                -1.319
REMARK SMILES CCCCCCCCCCCCCCCCCC(=O)[O-]
REMARK SMILES IDX 10 1 11 2 12 3 13 4 14 5 15 6 16 7 17 8 18 9 19 10 20 11
REMARK SMILES IDX 9 12 8 13 7 14 6 15 5 16 4 17 3 18 2 19 1 20
REMARK H PARENT
REMARK INDEX MAP 4 1 6 2 8 3 10 4 12 5 14 6 16 7 18 8 20 9 2 10 1 11 3 12 5 13
REMARK INDEX MAP 7 14 9 15 11 16 13 17 15 18 17 19 19 20
ROOT
ATOM      1  C   UNL     1      11.990  33.003  25.632  1.00  0.00     0.000 C 
ENDROOT
BRANCH   1   2
ATOM      2  C   UNL     1      10.524  32.855  25.205  1.00  0.00     0.000 C 
BRANCH   2   3
ATOM      3  C   UNL     1      10.372  32.530  23.715  1.00  0.00     0.000 C 
BRANCH   3   4
ATOM      4  C   UNL     1      11.641  31.945  23.086  1.00  0.00     0.000 C 
BRANCH   4   5
ATOM      5  C   UNL     1      11.540  31.558  21.607  1.00  0.00     0.000 C 
BRANCH   5   6
ATOM      6  C   UNL     1      10.123  31.493  21.028  1.00  0.00     0.000 C 
BRANCH   6   7
ATOM      7  C   UNL     1      10.055  31.814  19.532  1.00  0.00     0.006 C 
BRANCH   7   8
ATOM      8  C   UNL     1       8.648  32.207  19.089  1.00  0.00     0.053 C 
BRANCH   8   9
ATOM      9  C   UNL     1       7.908  31.073  18.435  1.00  0.00     0.041 C 
ATOM     10  O   UNL     1       8.343  29.953  18.231  1.00  0.00    -0.550 OA
ATOM     11  O   UNL     1       6.647  31.393  18.091  1.00  0.00    -0.550 OA
ENDBRANCH   8   9
ENDBRANCH   7   8
ENDBRANCH   6   7
ENDBRANCH   5   6
ENDBRANCH   4   5
ENDBRANCH   3   4
ENDBRANCH   2   3
ENDBRANCH   1   2
BRANCH   1  12
ATOM     12  C   UNL     1      12.210  33.760  26.948  1.00  0.00     0.000 C 
BRANCH  12  13
ATOM     13  C   UNL     1      11.440  35.075  27.055  1.00  0.00    -0.000 C 
BRANCH  13  14
ATOM     14  C   UNL     1      10.296  35.031  28.073  1.00  0.00    -0.000 C 
BRANCH  14  15
ATOM     15  C   UNL     1      10.524  34.129  29.291  1.00  0.00    -0.000 C 
BRANCH  15  16
ATOM     16  C   UNL     1      10.548  34.839  30.649  1.00  0.00    -0.000 C 
BRANCH  16  17
ATOM     17  C   UNL     1      11.925  34.828  31.316  1.00  0.00    -0.000 C 
BRANCH  17  18
ATOM     18  C   UNL     1      12.838  33.775  30.683  1.00  0.00    -0.000 C 
BRANCH  18  19
ATOM     19  C   UNL     1      14.204  34.328  30.269  1.00  0.00    -0.003 C 
ATOM     20  C   UNL     1      14.124  35.649  29.520  1.00  0.00     0.004 C 
ENDBRANCH  18  19
ENDBRANCH  17  18
ENDBRANCH  16  17
ENDBRANCH  15  16
ENDBRANCH  14  15
ENDBRANCH  13  14
ENDBRANCH  12  13
ENDBRANCH   1  12
TORSDOF 16
ENDMDL
MODEL 20
REMARK VINA RESULT:    -5.868      3.041      4.881
REMARK INTER + INTRA:         -12.675
REMARK INTER:                 -11.624
REMARK INTRA:                  -1.051
REMARK UNBOUND:                -1.319
REMARK SMILES CCCCCCCCCCCCCCCCCC(=O)[O-]
REMARK SMILES IDX 10 1 11 2 12 3 13 4 14 5 15 6 16 7 17 8 18 9 19 10 20 11
REMARK SMILES IDX 9 12 8 13 7 14 6 15 5 16 4 17 3 18 2 19 1 20
REMARK H PARENT
REMARK INDEX MAP 4 1 6 2 8 3 10 4 12 5 14 6 16 7 18 8 20 9 2 10 1 11 3 12 5 13
REMARK INDEX MAP 7 14 9 15 11 16 13 17 15 18 17 19 19 20
ROOT
ATOM      1  C   UNL     1       9.804  32.433  21.977  1.00  0.00     0.000 C 
ENDROOT
BRANCH   1   2
ATOM      2  C   UNL     1      11.091  31.771  22.485  1.00  0.00     0.000 C 
BRANCH   2   3
ATOM      3  C   UNL     1      11.455  32.200  23.909  1.00  0.00     0.000 C 
BRANCH   3   4
ATOM      4  C   UNL     1      10.260  32.724  24.713  1.00  0.00     0.000 C 
BRANCH   4   5
ATOM      5  C   UNL     1      10.511  32.971  26.205  1.00  0.00     0.000 C 
BRANCH   5   6
ATOM      6  C   UNL     1      11.794  33.734  26.549  1.00  0.00     0.000 C 
BRANCH   6   7
ATOM      7  C   UNL     1      11.560  35.210  26.882  1.00  0.00     0.006 C 
BRANCH   7   8
ATOM      8  C   UNL     1      11.900  35.536  28.334  1.00  0.00     0.053 C 
BRANCH   8   9
ATOM      9  C   UNL     1      13.337  35.941  28.517  1.00  0.00     0.041 C 
ATOM     10  O   UNL     1      13.898  36.870  27.963  1.00  0.00    -0.550 OA
ATOM     11  O   UNL     1      13.994  35.173  29.407  1.00  0.00    -0.550 OA
ENDBRANCH   8   9
ENDBRANCH   7   8
ENDBRANCH   6   7
ENDBRANCH   5   6
ENDBRANCH   4   5
ENDBRANCH   3   4
ENDBRANCH   2   3
ENDBRANCH   1   2
BRANCH   1  12
ATOM     12  C   UNL     1       9.186  31.783  20.733  1.00  0.00     0.000 C 
BRANCH  12  13
ATOM     13  C   UNL     1      10.081  31.813  19.495  1.00  0.00    -0.000 C 
BRANCH  13  14
ATOM     14  C   UNL     1       9.308  31.673  18.180  1.00  0.00    -0.000 C 
BRANCH  14  15
ATOM     15  C   UNL     1       8.724  30.285  17.896  1.00  0.00    -0.000 C 
BRANCH  15  16
ATOM     16  C   UNL     1       7.921  30.155  16.597  1.00  0.00    -0.000 C 
BRANCH  16  17
ATOM     17  C   UNL     1       6.420  29.968  16.827  1.00  0.00    -0.000 C 
BRANCH  17  18
ATOM     18  C   UNL     1       6.105  29.792  18.315  1.00  0.00    -0.000 C 
BRANCH  18  19
ATOM     19  C   UNL     1       5.281  30.941  18.900  1.00  0.00    -0.003 C 
ATOM     20  C   UNL     1       5.222  32.166  18.000  1.00  0.00     0.004 C 
ENDBRANCH  18  19
ENDBRANCH  17  18
ENDBRANCH  16  17
ENDBRANCH  15  16
ENDBRANCH  14  15
ENDBRANCH  13  14
ENDBRANCH  12  13
ENDBRANCH   1  12
TORSDOF 16
ENDMDL
