MODEL 1
REMARK VINA RESULT:    -6.473      0.000      0.000
REMARK INTER + INTRA:         -14.446
REMARK INTER:                 -11.771
REMARK INTRA:                  -2.676
REMARK UNBOUND:                -2.676
REMARK SMILES CCCCC/C=C\C/C=C\CCCCCCCC(=O)[O-]
REMARK SMILES IDX 11 1 12 2 13 3 14 4 15 5 16 6 17 7 18 8 19 9 20 10 10 11
REMARK SMILES IDX 9 12 8 13 7 14 6 15 5 16 4 17 3 18 2 19 1 20
REMARK H PARENT
REMARK INDEX MAP 8 1 6 2 4 3 3 4 5 5 7 6 9 7 18 8 2 9 1 10 12 11 15 12 16 13
REMARK INDEX MAP 19 14 17 15 13 16 10 17 11 18 14 19 20 20
ROOT
ATOM      1  C   UNL     1     -33.506  19.732   5.584  1.00  0.00     0.027 C 
ENDROOT
BRANCH   1   2
ATOM      2  C   UNL     1     -33.952  20.829   4.611  1.00  0.00     0.004 C 
BRANCH   2   3
ATOM      3  C   UNL     1     -35.388  21.306   4.851  1.00  0.00     0.000 C 
BRANCH   3   4
ATOM      4  C   UNL     1     -36.446  20.355   4.282  1.00  0.00     0.000 C 
BRANCH   4   5
ATOM      5  C   UNL     1     -37.819  20.511   4.940  1.00  0.00     0.000 C 
BRANCH   5   6
ATOM      6  C   UNL     1     -37.723  20.354   6.463  1.00  0.00     0.006 C 
BRANCH   6   7
ATOM      7  C   UNL     1     -38.411  21.495   7.211  1.00  0.00     0.053 C 
BRANCH   7   8
ATOM      8  C   UNL     1     -39.892  21.272   7.401  1.00  0.00     0.041 C 
ATOM      9  O   UNL     1     -40.429  20.216   7.701  1.00  0.00    -0.550 OA
ATOM     10  O   UNL     1     -40.567  22.436   7.219  1.00  0.00    -0.550 OA
ENDBRANCH   7   8
ENDBRANCH   6   7
ENDBRANCH   5   6
ENDBRANCH   4   5
ENDBRANCH   3   4
ENDBRANCH   2   3
ENDBRANCH   1   2
BRANCH   1  11
ATOM     11  C   UNL     1     -32.509  20.214   6.600  1.00  0.00    -0.031 C 
ATOM     12  C   UNL     1     -32.840  20.613   7.837  1.00  0.00    -0.027 C 
BRANCH  12  13
ATOM     13  C   UNL     1     -34.246  20.626   8.360  1.00  0.00     0.054 C 
BRANCH  13  14
ATOM     14  C   UNL     1     -34.450  21.721   9.368  1.00  0.00    -0.027 C 
ATOM     15  C   UNL     1     -35.012  22.904   9.074  1.00  0.00    -0.031 C 
BRANCH  15  16
ATOM     16  C   UNL     1     -35.531  23.361   7.738  1.00  0.00     0.027 C 
BRANCH  16  17
ATOM     17  C   UNL     1     -34.730  24.457   7.024  1.00  0.00     0.004 C 
BRANCH  17  18
ATOM     18  C   UNL     1     -33.291  24.006   6.760  1.00  0.00     0.000 C 
BRANCH  18  19
ATOM     19  C   UNL     1     -32.241  24.974   7.310  1.00  0.00    -0.003 C 
ATOM     20  C   UNL     1     -31.815  24.662   8.736  1.00  0.00     0.004 C 
ENDBRANCH  18  19
ENDBRANCH  17  18
ENDBRANCH  16  17
ENDBRANCH  15  16
ENDBRANCH  13  14
ENDBRANCH  12  13
ENDBRANCH   1  11
TORSDOF 14
ENDMDL
MODEL 2
REMARK VINA RESULT:    -6.443      3.327      5.370
REMARK INTER + INTRA:         -14.392
REMARK INTER:                 -11.573
REMARK INTRA:                  -2.819
REMARK UNBOUND:                -2.676
REMARK SMILES CCCCC/C=C\C/C=C\CCCCCCCC(=O)[O-]
REMARK SMILES IDX 11 1 12 2 13 3 14 4 15 5 16 6 17 7 18 8 19 9 20 10 10 11
REMARK SMILES IDX 9 12 8 13 7 14 6 15 5 16 4 17 3 18 2 19 1 20
REMARK H PARENT
REMARK INDEX MAP 8 1 6 2 4 3 3 4 5 5 7 6 9 7 18 8 2 9 1 10 12 11 15 12 16 13
REMARK INDEX MAP 19 14 17 15 13 16 10 17 11 18 14 19 20 20
ROOT
ATOM      1  C   UNL     1     -36.326  21.595   7.225  1.00  0.00     0.027 C 
ENDROOT
BRANCH   1   2
ATOM      2  C   UNL     1     -36.941  21.384   5.837  1.00  0.00     0.004 C 
BRANCH   2   3
ATOM      3  C   UNL     1     -35.894  21.210   4.731  1.00  0.00     0.000 C 
BRANCH   3   4
ATOM      4  C   UNL     1     -34.701  20.346   5.156  1.00  0.00     0.000 C 
BRANCH   4   5
ATOM      5  C   UNL     1     -33.347  20.980   4.829  1.00  0.00     0.000 C 
BRANCH   5   6
ATOM      6  C   UNL     1     -32.411  20.943   6.044  1.00  0.00     0.006 C 
BRANCH   6   7
ATOM      7  C   UNL     1     -32.653  19.721   6.929  1.00  0.00     0.053 C 
BRANCH   7   8
ATOM      8  C   UNL     1     -31.839  18.519   6.515  1.00  0.00     0.041 C 
ATOM      9  O   UNL     1     -31.809  18.019   5.401  1.00  0.00    -0.550 OA
ATOM     10  O   UNL     1     -31.101  18.071   7.563  1.00  0.00    -0.550 OA
ENDBRANCH   7   8
ENDBRANCH   6   7
ENDBRANCH   5   6
ENDBRANCH   4   5
ENDBRANCH   3   4
ENDBRANCH   2   3
ENDBRANCH   1   2
BRANCH   1  11
ATOM     11  C   UNL     1     -36.570  22.972   7.775  1.00  0.00    -0.031 C 
ATOM     12  C   UNL     1     -35.743  24.010   7.578  1.00  0.00    -0.027 C 
BRANCH  12  13
ATOM     13  C   UNL     1     -34.473  23.924   6.784  1.00  0.00     0.054 C 
BRANCH  13  14
ATOM     14  C   UNL     1     -33.372  24.726   7.418  1.00  0.00    -0.027 C 
ATOM     15  C   UNL     1     -32.626  24.281   8.442  1.00  0.00    -0.031 C 
BRANCH  15  16
ATOM     16  C   UNL     1     -32.732  22.951   9.139  1.00  0.00     0.027 C 
BRANCH  16  17
ATOM     17  C   UNL     1     -33.350  22.954  10.542  1.00  0.00     0.004 C 
BRANCH  17  18
ATOM     18  C   UNL     1     -34.548  22.003  10.620  1.00  0.00     0.000 C 
BRANCH  18  19
ATOM     19  C   UNL     1     -34.275  20.632   9.998  1.00  0.00    -0.003 C 
ATOM     20  C   UNL     1     -34.283  19.494  11.007  1.00  0.00     0.004 C 
ENDBRANCH  18  19
ENDBRANCH  17  18
ENDBRANCH  16  17
ENDBRANCH  15  16
ENDBRANCH  13  14
ENDBRANCH  12  13
ENDBRANCH   1  11
TORSDOF 14
ENDMDL
MODEL 3
REMARK VINA RESULT:    -6.436      0.958      2.435
REMARK INTER + INTRA:         -14.379
REMARK INTER:                 -11.756
REMARK INTRA:                  -2.623
REMARK UNBOUND:                -2.676
REMARK SMILES CCCCC/C=C\C/C=C\CCCCCCCC(=O)[O-]
REMARK SMILES IDX 11 1 12 2 13 3 14 4 15 5 16 6 17 7 18 8 19 9 20 10 10 11
REMARK SMILES IDX 9 12 8 13 7 14 6 15 5 16 4 17 3 18 2 19 1 20
REMARK H PARENT
REMARK INDEX MAP 8 1 6 2 4 3 3 4 5 5 7 6 9 7 18 8 2 9 1 10 12 11 15 12 16 13
REMARK INDEX MAP 19 14 17 15 13 16 10 17 11 18 14 19 20 20
ROOT
ATOM      1  C   UNL     1     -32.503  20.068   5.769  1.00  0.00     0.027 C 
ENDROOT
BRANCH   1   2
ATOM      2  C   UNL     1     -34.029  19.926   5.787  1.00  0.00     0.004 C 
BRANCH   2   3
ATOM      3  C   UNL     1     -34.731  20.783   4.728  1.00  0.00     0.000 C 
BRANCH   3   4
ATOM      4  C   UNL     1     -36.136  21.232   5.145  1.00  0.00     0.000 C 
BRANCH   4   5
ATOM      5  C   UNL     1     -37.244  20.658   4.258  1.00  0.00     0.000 C 
BRANCH   5   6
ATOM      6  C   UNL     1     -38.509  20.366   5.074  1.00  0.00     0.006 C 
BRANCH   6   7
ATOM      7  C   UNL     1     -38.346  20.723   6.551  1.00  0.00     0.053 C 
BRANCH   7   8
ATOM      8  C   UNL     1     -39.595  21.315   7.159  1.00  0.00     0.041 C 
ATOM      9  O   UNL     1     -39.931  22.489   7.113  1.00  0.00    -0.550 OA
ATOM     10  O   UNL     1     -40.331  20.343   7.754  1.00  0.00    -0.550 OA
ENDBRANCH   7   8
ENDBRANCH   6   7
ENDBRANCH   5   6
ENDBRANCH   4   5
ENDBRANCH   3   4
ENDBRANCH   2   3
ENDBRANCH   1   2
BRANCH   1  11
ATOM     11  C   UNL     1     -31.949  20.639   7.044  1.00  0.00    -0.031 C 
ATOM     12  C   UNL     1     -31.736  21.949   7.242  1.00  0.00    -0.027 C 
BRANCH  12  13
ATOM     13  C   UNL     1     -32.027  23.005   6.217  1.00  0.00     0.054 C 
BRANCH  13  14
ATOM     14  C   UNL     1     -32.323  24.330   6.860  1.00  0.00    -0.027 C 
ATOM     15  C   UNL     1     -33.556  24.718   7.222  1.00  0.00    -0.031 C 
BRANCH  15  16
ATOM     16  C   UNL     1     -34.839  23.948   7.067  1.00  0.00     0.027 C 
BRANCH  16  17
ATOM     17  C   UNL     1     -35.486  23.416   8.352  1.00  0.00     0.004 C 
BRANCH  17  18
ATOM     18  C   UNL     1     -35.158  21.935   8.564  1.00  0.00     0.000 C 
BRANCH  18  19
ATOM     19  C   UNL     1     -34.706  21.612   9.990  1.00  0.00    -0.003 C 
ATOM     20  C   UNL     1     -33.955  22.752  10.661  1.00  0.00     0.004 C 
ENDBRANCH  18  19
ENDBRANCH  17  18
ENDBRANCH  16  17
ENDBRANCH  15  16
ENDBRANCH  13  14
ENDBRANCH  12  13
ENDBRANCH   1  11
TORSDOF 14
ENDMDL
MODEL 4
REMARK VINA RESULT:    -6.402      1.146      1.871
REMARK INTER + INTRA:         -14.317
REMARK INTER:                 -11.641
REMARK INTRA:                  -2.676
REMARK UNBOUND:                -2.676
REMARK SMILES CCCCC/C=C\C/C=C\CCCCCCCC(=O)[O-]
REMARK SMILES IDX 11 1 12 2 13 3 14 4 15 5 16 6 17 7 18 8 19 9 20 10 10 11
REMARK SMILES IDX 9 12 8 13 7 14 6 15 5 16 4 17 3 18 2 19 1 20
REMARK H PARENT
REMARK INDEX MAP 8 1 6 2 4 3 3 4 5 5 7 6 9 7 18 8 2 9 1 10 12 11 15 12 16 13
REMARK INDEX MAP 19 14 17 15 13 16 10 17 11 18 14 19 20 20
ROOT
ATOM      1  C   UNL     1     -32.532  20.980   6.333  1.00  0.00     0.027 C 
ENDROOT
BRANCH   1   2
ATOM      2  C   UNL     1     -32.862  20.582   4.890  1.00  0.00     0.004 C 
BRANCH   2   3
ATOM      3  C   UNL     1     -34.358  20.660   4.566  1.00  0.00     0.000 C 
BRANCH   3   4
ATOM      4  C   UNL     1     -35.136  21.578   5.515  1.00  0.00     0.000 C 
BRANCH   4   5
ATOM      5  C   UNL     1     -36.586  21.137   5.731  1.00  0.00     0.000 C 
BRANCH   5   6
ATOM      6  C   UNL     1     -37.132  21.667   7.063  1.00  0.00     0.006 C 
BRANCH   6   7
ATOM      7  C   UNL     1     -38.202  20.754   7.659  1.00  0.00     0.053 C 
BRANCH   7   8
ATOM      8  C   UNL     1     -39.607  21.169   7.295  1.00  0.00     0.041 C 
ATOM      9  O   UNL     1     -39.941  22.247   6.828  1.00  0.00    -0.550 OA
ATOM     10  O   UNL     1     -40.472  20.149   7.531  1.00  0.00    -0.550 OA
ENDBRANCH   7   8
ENDBRANCH   6   7
ENDBRANCH   5   6
ENDBRANCH   4   5
ENDBRANCH   3   4
ENDBRANCH   2   3
ENDBRANCH   1   2
BRANCH   1  11
ATOM     11  C   UNL     1     -31.970  19.847   7.143  1.00  0.00    -0.031 C 
ATOM     12  C   UNL     1     -32.700  19.102   7.987  1.00  0.00    -0.027 C 
BRANCH  12  13
ATOM     13  C   UNL     1     -34.167  19.306   8.224  1.00  0.00     0.054 C 
BRANCH  13  14
ATOM     14  C   UNL     1     -34.449  19.659   9.657  1.00  0.00    -0.027 C 
ATOM     15  C   UNL     1     -34.524  20.921  10.108  1.00  0.00    -0.031 C 
BRANCH  15  16
ATOM     16  C   UNL     1     -34.347  22.188   9.314  1.00  0.00     0.027 C 
BRANCH  16  17
ATOM     17  C   UNL     1     -33.332  23.204   9.851  1.00  0.00     0.004 C 
BRANCH  17  18
ATOM     18  C   UNL     1     -32.189  23.422   8.855  1.00  0.00     0.000 C 
BRANCH  18  19
ATOM     19  C   UNL     1     -32.262  24.770   8.134  1.00  0.00    -0.003 C 
ATOM     20  C   UNL     1     -33.143  24.749   6.895  1.00  0.00     0.004 C 
ENDBRANCH  18  19
ENDBRANCH  17  18
ENDBRANCH  16  17
ENDBRANCH  15  16
ENDBRANCH  13  14
ENDBRANCH  12  13
ENDBRANCH   1  11
TORSDOF 14
ENDMDL
MODEL 5
REMARK VINA RESULT:    -6.387      2.959      5.360
REMARK INTER + INTRA:         -14.290
REMARK INTER:                 -11.584
REMARK INTRA:                  -2.706
REMARK UNBOUND:                -2.676
REMARK SMILES CCCCC/C=C\C/C=C\CCCCCCCC(=O)[O-]
REMARK SMILES IDX 11 1 12 2 13 3 14 4 15 5 16 6 17 7 18 8 19 9 20 10 10 11
REMARK SMILES IDX 9 12 8 13 7 14 6 15 5 16 4 17 3 18 2 19 1 20
REMARK H PARENT
REMARK INDEX MAP 8 1 6 2 4 3 3 4 5 5 7 6 9 7 18 8 2 9 1 10 12 11 15 12 16 13
REMARK INDEX MAP 19 14 17 15 13 16 10 17 11 18 14 19 20 20
ROOT
ATOM      1  C   UNL     1     -34.759  21.736  10.177  1.00  0.00     0.027 C 
ENDROOT
BRANCH   1   2
ATOM      2  C   UNL     1     -34.646  20.381  10.884  1.00  0.00     0.004 C 
BRANCH   2   3
ATOM      3  C   UNL     1     -34.042  19.284  10.001  1.00  0.00     0.000 C 
BRANCH   3   4
ATOM      4  C   UNL     1     -34.068  19.626   8.507  1.00  0.00     0.000 C 
BRANCH   4   5
ATOM      5  C   UNL     1     -33.380  18.575   7.632  1.00  0.00     0.000 C 
BRANCH   5   6
ATOM      6  C   UNL     1     -32.942  19.173   6.290  1.00  0.00     0.006 C 
BRANCH   6   7
ATOM      7  C   UNL     1     -33.776  20.391   5.895  1.00  0.00     0.053 C 
BRANCH   7   8
ATOM      8  C   UNL     1     -33.126  21.232   4.822  1.00  0.00     0.041 C 
ATOM      9  O   UNL     1     -32.245  22.061   4.992  1.00  0.00    -0.550 OA
ATOM     10  O   UNL     1     -33.641  20.918   3.606  1.00  0.00    -0.550 OA
ENDBRANCH   7   8
ENDBRANCH   6   7
ENDBRANCH   5   6
ENDBRANCH   4   5
ENDBRANCH   3   4
ENDBRANCH   2   3
ENDBRANCH   1   2
BRANCH   1  11
ATOM     11  C   UNL     1     -33.847  22.781  10.755  1.00  0.00    -0.031 C 
ATOM     12  C   UNL     1     -32.851  23.361  10.069  1.00  0.00    -0.027 C 
BRANCH  12  13
ATOM     13  C   UNL     1     -32.525  23.040   8.641  1.00  0.00     0.054 C 
BRANCH  13  14
ATOM     14  C   UNL     1     -32.609  24.260   7.768  1.00  0.00    -0.027 C 
ATOM     15  C   UNL     1     -33.679  24.560   7.015  1.00  0.00    -0.031 C 
BRANCH  15  16
ATOM     16  C   UNL     1     -34.957  23.774   6.889  1.00  0.00     0.027 C 
BRANCH  16  17
ATOM     17  C   UNL     1     -36.057  24.075   7.914  1.00  0.00     0.004 C 
BRANCH  17  18
ATOM     18  C   UNL     1     -37.267  23.158   7.710  1.00  0.00     0.000 C 
BRANCH  18  19
ATOM     19  C   UNL     1     -36.887  21.739   7.280  1.00  0.00    -0.003 C 
ATOM     20  C   UNL     1     -38.081  20.883   6.889  1.00  0.00     0.004 C 
ENDBRANCH  18  19
ENDBRANCH  17  18
ENDBRANCH  16  17
ENDBRANCH  15  16
ENDBRANCH  13  14
ENDBRANCH  12  13
ENDBRANCH   1  11
TORSDOF 14
ENDMDL
MODEL 6
REMARK VINA RESULT:    -6.322      3.022      6.177
REMARK INTER + INTRA:         -14.172
REMARK INTER:                 -11.535
REMARK INTRA:                  -2.637
REMARK UNBOUND:                -2.676
REMARK SMILES CCCCC/C=C\C/C=C\CCCCCCCC(=O)[O-]
REMARK SMILES IDX 11 1 12 2 13 3 14 4 15 5 16 6 17 7 18 8 19 9 20 10 10 11
REMARK SMILES IDX 9 12 8 13 7 14 6 15 5 16 4 17 3 18 2 19 1 20
REMARK H PARENT
REMARK INDEX MAP 8 1 6 2 4 3 3 4 5 5 7 6 9 7 18 8 2 9 1 10 12 11 15 12 16 13
REMARK INDEX MAP 19 14 17 15 13 16 10 17 11 18 14 19 20 20
ROOT
ATOM      1  C   UNL     1     -34.459  22.236  10.347  1.00  0.00     0.027 C 
ENDROOT
BRANCH   1   2
ATOM      2  C   UNL     1     -33.198  23.075  10.108  1.00  0.00     0.004 C 
BRANCH   2   3
ATOM      3  C   UNL     1     -33.164  23.738   8.727  1.00  0.00     0.000 C 
BRANCH   3   4
ATOM      4  C   UNL     1     -31.861  23.479   7.962  1.00  0.00     0.000 C 
BRANCH   4   5
ATOM      5  C   UNL     1     -31.728  22.038   7.463  1.00  0.00     0.000 C 
BRANCH   5   6
ATOM      6  C   UNL     1     -32.202  21.911   6.010  1.00  0.00     0.006 C 
BRANCH   6   7
ATOM      7  C   UNL     1     -32.748  20.519   5.694  1.00  0.00     0.053 C 
BRANCH   7   8
ATOM      8  C   UNL     1     -32.877  20.253   4.214  1.00  0.00     0.041 C 
ATOM      9  O   UNL     1     -33.484  20.943   3.409  1.00  0.00    -0.550 OA
ATOM     10  O   UNL     1     -32.187  19.133   3.878  1.00  0.00    -0.550 OA
ENDBRANCH   7   8
ENDBRANCH   6   7
ENDBRANCH   5   6
ENDBRANCH   4   5
ENDBRANCH   3   4
ENDBRANCH   2   3
ENDBRANCH   1   2
BRANCH   1  11
ATOM     11  C   UNL     1     -34.479  20.962   9.551  1.00  0.00    -0.031 C 
ATOM     12  C   UNL     1     -35.269  20.763   8.484  1.00  0.00    -0.027 C 
BRANCH  12  13
ATOM     13  C   UNL     1     -36.227  21.787   7.954  1.00  0.00     0.054 C 
BRANCH  13  14
ATOM     14  C   UNL     1     -35.795  22.303   6.611  1.00  0.00    -0.027 C 
ATOM     15  C   UNL     1     -36.115  21.708   5.451  1.00  0.00    -0.031 C 
BRANCH  15  16
ATOM     16  C   UNL     1     -36.931  20.459   5.259  1.00  0.00     0.027 C 
BRANCH  16  17
ATOM     17  C   UNL     1     -38.447  20.588   5.452  1.00  0.00     0.004 C 
BRANCH  17  18
ATOM     18  C   UNL     1     -38.924  19.756   6.647  1.00  0.00     0.000 C 
BRANCH  18  19
ATOM     19  C   UNL     1     -39.649  20.584   7.711  1.00  0.00    -0.003 C 
ATOM     20  C   UNL     1     -39.706  22.069   7.390  1.00  0.00     0.004 C 
ENDBRANCH  18  19
ENDBRANCH  17  18
ENDBRANCH  16  17
ENDBRANCH  15  16
ENDBRANCH  13  14
ENDBRANCH  12  13
ENDBRANCH   1  11
TORSDOF 14
ENDMDL
MODEL 7
REMARK VINA RESULT:    -6.310      3.459      5.585
REMARK INTER + INTRA:         -14.150
REMARK INTER:                 -11.282
REMARK INTRA:                  -2.868
REMARK UNBOUND:                -2.676
REMARK SMILES CCCCC/C=C\C/C=C\CCCCCCCC(=O)[O-]
REMARK SMILES IDX 11 1 12 2 13 3 14 4 15 5 16 6 17 7 18 8 19 9 20 10 10 11
REMARK SMILES IDX 9 12 8 13 7 14 6 15 5 16 4 17 3 18 2 19 1 20
REMARK H PARENT
REMARK INDEX MAP 8 1 6 2 4 3 3 4 5 5 7 6 9 7 18 8 2 9 1 10 12 11 15 12 16 13
REMARK INDEX MAP 19 14 17 15 13 16 10 17 11 18 14 19 20 20
ROOT
ATOM      1  C   UNL     1     -35.464  23.352   8.060  1.00  0.00     0.027 C 
ENDROOT
BRANCH   1   2
ATOM      2  C   UNL     1     -35.219  23.018   9.536  1.00  0.00     0.004 C 
BRANCH   2   3
ATOM      3  C   UNL     1     -34.161  21.929   9.743  1.00  0.00     0.000 C 
BRANCH   3   4
ATOM      4  C   UNL     1     -34.720  20.657  10.390  1.00  0.00     0.000 C 
BRANCH   4   5
ATOM      5  C   UNL     1     -34.198  19.370   9.747  1.00  0.00     0.000 C 
BRANCH   5   6
ATOM      6  C   UNL     1     -33.247  19.678   8.585  1.00  0.00     0.006 C 
BRANCH   6   7
ATOM      7  C   UNL     1     -32.992  18.459   7.700  1.00  0.00     0.053 C 
BRANCH   7   8
ATOM      8  C   UNL     1     -31.595  18.422   7.129  1.00  0.00     0.041 C 
ATOM      9  O   UNL     1     -31.259  17.891   6.081  1.00  0.00    -0.550 OA
ATOM     10  O   UNL     1     -30.742  19.101   7.937  1.00  0.00    -0.550 OA
ENDBRANCH   7   8
ENDBRANCH   6   7
ENDBRANCH   5   6
ENDBRANCH   4   5
ENDBRANCH   3   4
ENDBRANCH   2   3
ENDBRANCH   1   2
BRANCH   1  11
ATOM     11  C   UNL     1     -36.770  22.819   7.543  1.00  0.00    -0.031 C 
ATOM     12  C   UNL     1     -36.889  21.667   6.867  1.00  0.00    -0.027 C 
BRANCH  12  13
ATOM     13  C   UNL     1     -35.733  20.767   6.544  1.00  0.00     0.054 C 
BRANCH  13  14
ATOM     14  C   UNL     1     -35.355  20.854   5.093  1.00  0.00    -0.027 C 
ATOM     15  C   UNL     1     -34.111  21.120   4.666  1.00  0.00    -0.031 C 
BRANCH  15  16
ATOM     16  C   UNL     1     -32.891  21.377   5.509  1.00  0.00     0.027 C 
BRANCH  16  17
ATOM     17  C   UNL     1     -32.686  22.811   6.011  1.00  0.00     0.004 C 
BRANCH  17  18
ATOM     18  C   UNL     1     -31.828  22.836   7.279  1.00  0.00     0.000 C 
BRANCH  18  19
ATOM     19  C   UNL     1     -31.889  24.169   8.027  1.00  0.00    -0.003 C 
ATOM     20  C   UNL     1     -32.519  25.291   7.217  1.00  0.00     0.004 C 
ENDBRANCH  18  19
ENDBRANCH  17  18
ENDBRANCH  16  17
ENDBRANCH  15  16
ENDBRANCH  13  14
ENDBRANCH  12  13
ENDBRANCH   1  11
TORSDOF 14
ENDMDL
MODEL 8
REMARK VINA RESULT:    -6.303      3.143      5.864
REMARK INTER + INTRA:         -14.137
REMARK INTER:                 -11.293
REMARK INTRA:                  -2.844
REMARK UNBOUND:                -2.676
REMARK SMILES CCCCC/C=C\C/C=C\CCCCCCCC(=O)[O-]
REMARK SMILES IDX 11 1 12 2 13 3 14 4 15 5 16 6 17 7 18 8 19 9 20 10 10 11
REMARK SMILES IDX 9 12 8 13 7 14 6 15 5 16 4 17 3 18 2 19 1 20
REMARK H PARENT
REMARK INDEX MAP 8 1 6 2 4 3 3 4 5 5 7 6 9 7 18 8 2 9 1 10 12 11 15 12 16 13
REMARK INDEX MAP 19 14 17 15 13 16 10 17 11 18 14 19 20 20
ROOT
ATOM      1  C   UNL     1     -33.261  23.733   8.277  1.00  0.00     0.027 C 
ENDROOT
BRANCH   1   2
ATOM      2  C   UNL     1     -34.574  23.020   8.619  1.00  0.00     0.004 C 
BRANCH   2   3
ATOM      3  C   UNL     1     -34.548  22.324   9.984  1.00  0.00     0.000 C 
BRANCH   3   4
ATOM      4  C   UNL     1     -34.671  20.799   9.891  1.00  0.00     0.000 C 
BRANCH   4   5
ATOM      5  C   UNL     1     -34.738  20.284   8.451  1.00  0.00     0.000 C 
BRANCH   5   6
ATOM      6  C   UNL     1     -34.041  18.924   8.318  1.00  0.00     0.006 C 
BRANCH   6   7
ATOM      7  C   UNL     1     -32.520  19.052   8.253  1.00  0.00     0.053 C 
BRANCH   7   8
ATOM      8  C   UNL     1     -31.898  18.199   7.173  1.00  0.00     0.041 C 
ATOM      9  O   UNL     1     -30.728  17.856   7.111  1.00  0.00    -0.550 OA
ATOM     10  O   UNL     1     -32.842  17.828   6.270  1.00  0.00    -0.550 OA
ENDBRANCH   7   8
ENDBRANCH   6   7
ENDBRANCH   5   6
ENDBRANCH   4   5
ENDBRANCH   3   4
ENDBRANCH   2   3
ENDBRANCH   1   2
BRANCH   1  11
ATOM     11  C   UNL     1     -32.093  22.795   8.166  1.00  0.00    -0.031 C 
ATOM     12  C   UNL     1     -31.720  22.202   7.021  1.00  0.00    -0.027 C 
BRANCH  12  13
ATOM     13  C   UNL     1     -32.422  22.404   5.711  1.00  0.00     0.054 C 
BRANCH  13  14
ATOM     14  C   UNL     1     -32.768  21.093   5.064  1.00  0.00    -0.027 C 
ATOM     15  C   UNL     1     -34.026  20.698   4.817  1.00  0.00    -0.031 C 
BRANCH  15  16
ATOM     16  C   UNL     1     -35.296  21.446   5.123  1.00  0.00     0.027 C 
BRANCH  16  17
ATOM     17  C   UNL     1     -36.607  20.803   4.655  1.00  0.00     0.004 C 
BRANCH  17  18
ATOM     18  C   UNL     1     -37.485  20.407   5.846  1.00  0.00     0.000 C 
BRANCH  18  19
ATOM     19  C   UNL     1     -37.656  21.530   6.871  1.00  0.00    -0.003 C 
ATOM     20  C   UNL     1     -39.107  21.803   7.237  1.00  0.00     0.004 C 
ENDBRANCH  18  19
ENDBRANCH  17  18
ENDBRANCH  16  17
ENDBRANCH  15  16
ENDBRANCH  13  14
ENDBRANCH  12  13
ENDBRANCH   1  11
TORSDOF 14
ENDMDL
MODEL 9
REMARK VINA RESULT:    -6.265      2.420      5.174
REMARK INTER + INTRA:         -14.069
REMARK INTER:                 -11.659
REMARK INTRA:                  -2.410
REMARK UNBOUND:                -2.676
REMARK SMILES CCCCC/C=C\C/C=C\CCCCCCCC(=O)[O-]
REMARK SMILES IDX 11 1 12 2 13 3 14 4 15 5 16 6 17 7 18 8 19 9 20 10 10 11
REMARK SMILES IDX 9 12 8 13 7 14 6 15 5 16 4 17 3 18 2 19 1 20
REMARK H PARENT
REMARK INDEX MAP 8 1 6 2 4 3 3 4 5 5 7 6 9 7 18 8 2 9 1 10 12 11 15 12 16 13
REMARK INDEX MAP 19 14 17 15 13 16 10 17 11 18 14 19 20 20
ROOT
ATOM      1  C   UNL     1     -32.164  22.955   6.219  1.00  0.00     0.027 C 
ENDROOT
BRANCH   1   2
ATOM      2  C   UNL     1     -32.133  24.359   6.835  1.00  0.00     0.004 C 
BRANCH   2   3
ATOM      3  C   UNL     1     -33.447  24.749   7.520  1.00  0.00     0.000 C 
BRANCH   3   4
ATOM      4  C   UNL     1     -34.672  24.042   6.930  1.00  0.00     0.000 C 
BRANCH   4   5
ATOM      5  C   UNL     1     -35.560  23.382   7.988  1.00  0.00     0.000 C 
BRANCH   5   6
ATOM      6  C   UNL     1     -34.718  22.636   9.030  1.00  0.00     0.006 C 
BRANCH   6   7
ATOM      7  C   UNL     1     -35.141  21.175   9.184  1.00  0.00     0.053 C 
BRANCH   7   8
ATOM      8  C   UNL     1     -34.599  20.530  10.436  1.00  0.00     0.041 C 
ATOM      9  O   UNL     1     -34.607  21.014  11.557  1.00  0.00    -0.550 OA
ATOM     10  O   UNL     1     -34.114  19.294  10.152  1.00  0.00    -0.550 OA
ENDBRANCH   7   8
ENDBRANCH   6   7
ENDBRANCH   5   6
ENDBRANCH   4   5
ENDBRANCH   3   4
ENDBRANCH   2   3
ENDBRANCH   1   2
BRANCH   1  11
ATOM     11  C   UNL     1     -31.464  21.926   7.061  1.00  0.00    -0.031 C 
ATOM     12  C   UNL     1     -31.920  20.678   7.243  1.00  0.00    -0.027 C 
BRANCH  12  13
ATOM     13  C   UNL     1     -33.184  20.155   6.627  1.00  0.00     0.054 C 
BRANCH  13  14
ATOM     14  C   UNL     1     -33.086  20.102   5.129  1.00  0.00    -0.027 C 
ATOM     15  C   UNL     1     -34.061  20.522   4.308  1.00  0.00    -0.031 C 
BRANCH  15  16
ATOM     16  C   UNL     1     -35.395  21.102   4.694  1.00  0.00     0.027 C 
BRANCH  16  17
ATOM     17  C   UNL     1     -36.635  20.480   4.041  1.00  0.00     0.004 C 
BRANCH  17  18
ATOM     18  C   UNL     1     -37.827  20.486   5.002  1.00  0.00     0.000 C 
BRANCH  18  19
ATOM     19  C   UNL     1     -37.422  20.650   6.469  1.00  0.00    -0.003 C 
ATOM     20  C   UNL     1     -38.604  20.681   7.425  1.00  0.00     0.004 C 
ENDBRANCH  18  19
ENDBRANCH  17  18
ENDBRANCH  16  17
ENDBRANCH  15  16
ENDBRANCH  13  14
ENDBRANCH  12  13
ENDBRANCH   1  11
TORSDOF 14
ENDMDL
MODEL 10
REMARK VINA RESULT:    -6.202      3.225      5.613
REMARK INTER + INTRA:         -13.953
REMARK INTER:                 -11.483
REMARK INTRA:                  -2.470
REMARK UNBOUND:                -2.676
REMARK SMILES CCCCC/C=C\C/C=C\CCCCCCCC(=O)[O-]
REMARK SMILES IDX 11 1 12 2 13 3 14 4 15 5 16 6 17 7 18 8 19 9 20 10 10 11
REMARK SMILES IDX 9 12 8 13 7 14 6 15 5 16 4 17 3 18 2 19 1 20
REMARK H PARENT
REMARK INDEX MAP 8 1 6 2 4 3 3 4 5 5 7 6 9 7 18 8 2 9 1 10 12 11 15 12 16 13
REMARK INDEX MAP 19 14 17 15 13 16 10 17 11 18 14 19 20 20
ROOT
ATOM      1  C   UNL     1     -33.064  24.880   7.856  1.00  0.00     0.027 C 
ENDROOT
BRANCH   1   2
ATOM      2  C   UNL     1     -33.240  24.163   6.513  1.00  0.00     0.004 C 
BRANCH   2   3
ATOM      3  C   UNL     1     -32.192  23.072   6.266  1.00  0.00     0.000 C 
BRANCH   3   4
ATOM      4  C   UNL     1     -32.783  21.658   6.240  1.00  0.00     0.000 C 
BRANCH   4   5
ATOM      5  C   UNL     1     -32.565  20.934   4.909  1.00  0.00     0.000 C 
BRANCH   5   6
ATOM      6  C   UNL     1     -32.776  19.422   5.061  1.00  0.00     0.006 C 
BRANCH   6   7
ATOM      7  C   UNL     1     -33.034  19.012   6.510  1.00  0.00     0.053 C 
BRANCH   7   8
ATOM      8  C   UNL     1     -31.823  18.409   7.180  1.00  0.00     0.041 C 
ATOM      9  O   UNL     1     -31.569  18.444   8.374  1.00  0.00    -0.550 OA
ATOM     10  O   UNL     1     -31.047  17.778   6.262  1.00  0.00    -0.550 OA
ENDBRANCH   7   8
ENDBRANCH   6   7
ENDBRANCH   5   6
ENDBRANCH   4   5
ENDBRANCH   3   4
ENDBRANCH   2   3
ENDBRANCH   1   2
BRANCH   1  11
ATOM     11  C   UNL     1     -32.134  24.160   8.791  1.00  0.00    -0.031 C 
ATOM     12  C   UNL     1     -32.549  23.351   9.778  1.00  0.00    -0.027 C 
BRANCH  12  13
ATOM     13  C   UNL     1     -33.992  23.064  10.068  1.00  0.00     0.054 C 
BRANCH  13  14
ATOM     14  C   UNL     1     -34.391  21.699   9.585  1.00  0.00    -0.027 C 
ATOM     15  C   UNL     1     -35.318  21.490   8.636  1.00  0.00    -0.031 C 
BRANCH  15  16
ATOM     16  C   UNL     1     -36.116  22.528   7.894  1.00  0.00     0.027 C 
BRANCH  16  17
ATOM     17  C   UNL     1     -37.389  22.046   7.188  1.00  0.00     0.004 C 
BRANCH  17  18
ATOM     18  C   UNL     1     -37.234  20.606   6.692  1.00  0.00     0.000 C 
BRANCH  18  19
ATOM     19  C   UNL     1     -37.444  20.459   5.184  1.00  0.00    -0.003 C 
ATOM     20  C   UNL     1     -36.221  20.829   4.360  1.00  0.00     0.004 C 
ENDBRANCH  18  19
ENDBRANCH  17  18
ENDBRANCH  16  17
ENDBRANCH  15  16
ENDBRANCH  13  14
ENDBRANCH  12  13
ENDBRANCH   1  11
TORSDOF 14
ENDMDL
MODEL 11
REMARK VINA RESULT:    -6.197      1.531      3.144
REMARK INTER + INTRA:         -13.945
REMARK INTER:                 -11.295
REMARK INTRA:                  -2.650
REMARK UNBOUND:                -2.676
REMARK SMILES CCCCC/C=C\C/C=C\CCCCCCCC(=O)[O-]
REMARK SMILES IDX 11 1 12 2 13 3 14 4 15 5 16 6 17 7 18 8 19 9 20 10 10 11
REMARK SMILES IDX 9 12 8 13 7 14 6 15 5 16 4 17 3 18 2 19 1 20
REMARK H PARENT
REMARK INDEX MAP 8 1 6 2 4 3 3 4 5 5 7 6 9 7 18 8 2 9 1 10 12 11 15 12 16 13
REMARK INDEX MAP 19 14 17 15 13 16 10 17 11 18 14 19 20 20
ROOT
ATOM      1  C   UNL     1     -34.223  22.091   9.423  1.00  0.00     0.027 C 
ENDROOT
BRANCH   1   2
ATOM      2  C   UNL     1     -35.317  23.163   9.477  1.00  0.00     0.004 C 
BRANCH   2   3
ATOM      3  C   UNL     1     -35.890  23.515   8.099  1.00  0.00     0.000 C 
BRANCH   3   4
ATOM      4  C   UNL     1     -35.332  22.642   6.970  1.00  0.00     0.000 C 
BRANCH   4   5
ATOM      5  C   UNL     1     -36.356  21.656   6.403  1.00  0.00     0.000 C 
BRANCH   5   6
ATOM      6  C   UNL     1     -37.696  21.764   7.141  1.00  0.00     0.006 C 
BRANCH   6   7
ATOM      7  C   UNL     1     -38.301  20.396   7.455  1.00  0.00     0.053 C 
BRANCH   7   8
ATOM      8  C   UNL     1     -39.695  20.224   6.903  1.00  0.00     0.041 C 
ATOM      9  O   UNL     1     -40.720  20.110   7.558  1.00  0.00    -0.550 OA
ATOM     10  O   UNL     1     -39.666  20.242   5.546  1.00  0.00    -0.550 OA
ENDBRANCH   7   8
ENDBRANCH   6   7
ENDBRANCH   5   6
ENDBRANCH   4   5
ENDBRANCH   3   4
ENDBRANCH   2   3
ENDBRANCH   1   2
BRANCH   1  11
ATOM     11  C   UNL     1     -34.579  20.846  10.184  1.00  0.00    -0.031 C 
ATOM     12  C   UNL     1     -34.532  19.613   9.657  1.00  0.00    -0.027 C 
BRANCH  12  13
ATOM     13  C   UNL     1     -34.116  19.325   8.245  1.00  0.00     0.054 C 
BRANCH  13  14
ATOM     14  C   UNL     1     -32.653  18.996   8.158  1.00  0.00    -0.027 C 
ATOM     15  C   UNL     1     -31.773  19.715   7.444  1.00  0.00    -0.031 C 
BRANCH  15  16
ATOM     16  C   UNL     1     -32.052  20.942   6.618  1.00  0.00     0.027 C 
BRANCH  16  17
ATOM     17  C   UNL     1     -31.593  22.285   7.199  1.00  0.00     0.004 C 
BRANCH  17  18
ATOM     18  C   UNL     1     -32.214  23.458   6.435  1.00  0.00     0.000 C 
BRANCH  18  19
ATOM     19  C   UNL     1     -32.110  24.791   7.180  1.00  0.00    -0.003 C 
ATOM     20  C   UNL     1     -31.853  24.634   8.671  1.00  0.00     0.004 C 
ENDBRANCH  18  19
ENDBRANCH  17  18
ENDBRANCH  16  17
ENDBRANCH  15  16
ENDBRANCH  13  14
ENDBRANCH  12  13
ENDBRANCH   1  11
TORSDOF 14
ENDMDL
MODEL 12
REMARK VINA RESULT:    -6.190      1.288      4.016
REMARK INTER + INTRA:         -13.932
REMARK INTER:                 -11.225
REMARK INTRA:                  -2.707
REMARK UNBOUND:                -2.676
REMARK SMILES CCCCC/C=C\C/C=C\CCCCCCCC(=O)[O-]
REMARK SMILES IDX 11 1 12 2 13 3 14 4 15 5 16 6 17 7 18 8 19 9 20 10 10 11
REMARK SMILES IDX 9 12 8 13 7 14 6 15 5 16 4 17 3 18 2 19 1 20
REMARK H PARENT
REMARK INDEX MAP 8 1 6 2 4 3 3 4 5 5 7 6 9 7 18 8 2 9 1 10 12 11 15 12 16 13
REMARK INDEX MAP 19 14 17 15 13 16 10 17 11 18 14 19 20 20
ROOT
ATOM      1  C   UNL     1     -33.117  24.518   7.263  1.00  0.00     0.027 C 
ENDROOT
BRANCH   1   2
ATOM      2  C   UNL     1     -34.570  24.312   6.821  1.00  0.00     0.004 C 
BRANCH   2   3
ATOM      3  C   UNL     1     -35.537  24.113   7.994  1.00  0.00     0.000 C 
BRANCH   3   4
ATOM      4  C   UNL     1     -36.599  23.040   7.729  1.00  0.00     0.000 C 
BRANCH   4   5
ATOM      5  C   UNL     1     -36.234  22.097   6.580  1.00  0.00     0.000 C 
BRANCH   5   6
ATOM      6  C   UNL     1     -37.308  21.019   6.387  1.00  0.00     0.006 C 
BRANCH   6   7
ATOM      7  C   UNL     1     -38.184  20.841   7.626  1.00  0.00     0.053 C 
BRANCH   7   8
ATOM      8  C   UNL     1     -39.658  20.993   7.336  1.00  0.00     0.041 C 
ATOM      9  O   UNL     1     -40.507  20.122   7.447  1.00  0.00    -0.550 OA
ATOM     10  O   UNL     1     -39.930  22.267   6.955  1.00  0.00    -0.550 OA
ENDBRANCH   7   8
ENDBRANCH   6   7
ENDBRANCH   5   6
ENDBRANCH   4   5
ENDBRANCH   3   4
ENDBRANCH   2   3
ENDBRANCH   1   2
BRANCH   1  11
ATOM     11  C   UNL     1     -32.617  23.432   8.174  1.00  0.00    -0.031 C 
ATOM     12  C   UNL     1     -32.006  22.320   7.740  1.00  0.00    -0.027 C 
BRANCH  12  13
ATOM     13  C   UNL     1     -31.743  22.023   6.294  1.00  0.00     0.054 C 
BRANCH  13  14
ATOM     14  C   UNL     1     -32.916  21.340   5.650  1.00  0.00    -0.027 C 
ATOM     15  C   UNL     1     -33.091  20.009   5.649  1.00  0.00    -0.031 C 
BRANCH  15  16
ATOM     16  C   UNL     1     -32.191  18.970   6.262  1.00  0.00     0.027 C 
BRANCH  16  17
ATOM     17  C   UNL     1     -32.475  18.581   7.718  1.00  0.00     0.004 C 
BRANCH  17  18
ATOM     18  C   UNL     1     -33.900  18.967   8.124  1.00  0.00     0.000 C 
BRANCH  18  19
ATOM     19  C   UNL     1     -34.011  19.435   9.577  1.00  0.00    -0.003 C 
ATOM     20  C   UNL     1     -34.693  20.786   9.729  1.00  0.00     0.004 C 
ENDBRANCH  18  19
ENDBRANCH  17  18
ENDBRANCH  16  17
ENDBRANCH  15  16
ENDBRANCH  13  14
ENDBRANCH  12  13
ENDBRANCH   1  11
TORSDOF 14
ENDMDL
MODEL 13
REMARK VINA RESULT:    -6.157      3.263      4.815
REMARK INTER + INTRA:         -13.872
REMARK INTER:                 -11.521
REMARK INTRA:                  -2.350
REMARK UNBOUND:                -2.676
REMARK SMILES CCCCC/C=C\C/C=C\CCCCCCCC(=O)[O-]
REMARK SMILES IDX 11 1 12 2 13 3 14 4 15 5 16 6 17 7 18 8 19 9 20 10 10 11
REMARK SMILES IDX 9 12 8 13 7 14 6 15 5 16 4 17 3 18 2 19 1 20
REMARK H PARENT
REMARK INDEX MAP 8 1 6 2 4 3 3 4 5 5 7 6 9 7 18 8 2 9 1 10 12 11 15 12 16 13
REMARK INDEX MAP 19 14 17 15 13 16 10 17 11 18 14 19 20 20
ROOT
ATOM      1  C   UNL     1     -37.301  20.744   6.946  1.00  0.00     0.027 C 
ENDROOT
BRANCH   1   2
ATOM      2  C   UNL     1     -37.317  20.433   5.445  1.00  0.00     0.004 C 
BRANCH   2   3
ATOM      3  C   UNL     1     -36.149  21.066   4.682  1.00  0.00     0.000 C 
BRANCH   3   4
ATOM      4  C   UNL     1     -34.799  20.406   4.982  1.00  0.00     0.000 C 
BRANCH   4   5
ATOM      5  C   UNL     1     -33.702  21.408   5.351  1.00  0.00     0.000 C 
BRANCH   5   6
ATOM      6  C   UNL     1     -32.475  20.695   5.931  1.00  0.00     0.006 C 
BRANCH   6   7
ATOM      7  C   UNL     1     -32.854  19.562   6.884  1.00  0.00     0.053 C 
BRANCH   7   8
ATOM      8  C   UNL     1     -31.858  18.427   6.883  1.00  0.00     0.041 C 
ATOM      9  O   UNL     1     -31.343  17.921   7.868  1.00  0.00    -0.550 OA
ATOM     10  O   UNL     1     -31.624  18.012   5.613  1.00  0.00    -0.550 OA
ENDBRANCH   7   8
ENDBRANCH   6   7
ENDBRANCH   5   6
ENDBRANCH   4   5
ENDBRANCH   3   4
ENDBRANCH   2   3
ENDBRANCH   1   2
BRANCH   1  11
ATOM     11  C   UNL     1     -37.053  22.195   7.244  1.00  0.00    -0.031 C 
ATOM     12  C   UNL     1     -36.082  22.632   8.061  1.00  0.00    -0.027 C 
BRANCH  12  13
ATOM     13  C   UNL     1     -35.124  21.725   8.776  1.00  0.00     0.054 C 
BRANCH  13  14
ATOM     14  C   UNL     1     -34.634  22.340  10.056  1.00  0.00    -0.027 C 
ATOM     15  C   UNL     1     -33.455  22.973  10.170  1.00  0.00    -0.031 C 
BRANCH  15  16
ATOM     16  C   UNL     1     -32.425  23.187   9.094  1.00  0.00     0.027 C 
BRANCH  16  17
ATOM     17  C   UNL     1     -31.760  24.568   9.039  1.00  0.00     0.004 C 
BRANCH  17  18
ATOM     18  C   UNL     1     -32.181  25.333   7.781  1.00  0.00     0.000 C 
BRANCH  18  19
ATOM     19  C   UNL     1     -32.776  24.434   6.695  1.00  0.00    -0.003 C 
ATOM     20  C   UNL     1     -34.253  24.688   6.438  1.00  0.00     0.004 C 
ENDBRANCH  18  19
ENDBRANCH  17  18
ENDBRANCH  16  17
ENDBRANCH  15  16
ENDBRANCH  13  14
ENDBRANCH  12  13
ENDBRANCH   1  11
TORSDOF 14
ENDMDL
MODEL 14
REMARK VINA RESULT:    -6.147      1.254      3.710
REMARK INTER + INTRA:         -13.854
REMARK INTER:                 -11.368
REMARK INTRA:                  -2.486
REMARK UNBOUND:                -2.676
REMARK SMILES CCCCC/C=C\C/C=C\CCCCCCCC(=O)[O-]
REMARK SMILES IDX 11 1 12 2 13 3 14 4 15 5 16 6 17 7 18 8 19 9 20 10 10 11
REMARK SMILES IDX 9 12 8 13 7 14 6 15 5 16 4 17 3 18 2 19 1 20
REMARK H PARENT
REMARK INDEX MAP 8 1 6 2 4 3 3 4 5 5 7 6 9 7 18 8 2 9 1 10 12 11 15 12 16 13
REMARK INDEX MAP 19 14 17 15 13 16 10 17 11 18 14 19 20 20
ROOT
ATOM      1  C   UNL     1     -32.623  23.072   7.984  1.00  0.00     0.027 C 
ENDROOT
BRANCH   1   2
ATOM      2  C   UNL     1     -33.129  24.233   7.120  1.00  0.00     0.004 C 
BRANCH   2   3
ATOM      3  C   UNL     1     -34.641  24.194   6.878  1.00  0.00     0.000 C 
BRANCH   3   4
ATOM      4  C   UNL     1     -35.168  22.790   6.560  1.00  0.00     0.000 C 
BRANCH   4   5
ATOM      5  C   UNL     1     -36.511  22.481   7.227  1.00  0.00     0.000 C 
BRANCH   5   6
ATOM      6  C   UNL     1     -37.206  21.296   6.546  1.00  0.00     0.006 C 
BRANCH   6   7
ATOM      7  C   UNL     1     -38.209  20.601   7.466  1.00  0.00     0.053 C 
BRANCH   7   8
ATOM      8  C   UNL     1     -39.629  21.067   7.257  1.00  0.00     0.041 C 
ATOM      9  O   UNL     1     -39.975  22.185   6.907  1.00  0.00    -0.550 OA
ATOM     10  O   UNL     1     -40.495  20.047   7.485  1.00  0.00    -0.550 OA
ENDBRANCH   7   8
ENDBRANCH   6   7
ENDBRANCH   5   6
ENDBRANCH   4   5
ENDBRANCH   3   4
ENDBRANCH   2   3
ENDBRANCH   1   2
BRANCH   1  11
ATOM     11  C   UNL     1     -32.551  23.412   9.446  1.00  0.00    -0.031 C 
ATOM     12  C   UNL     1     -33.462  23.019  10.348  1.00  0.00    -0.027 C 
BRANCH  12  13
ATOM     13  C   UNL     1     -34.665  22.189  10.009  1.00  0.00     0.054 C 
BRANCH  13  14
ATOM     14  C   UNL     1     -34.551  20.799  10.568  1.00  0.00    -0.027 C 
ATOM     15  C   UNL     1     -34.393  19.705   9.807  1.00  0.00    -0.031 C 
BRANCH  15  16
ATOM     16  C   UNL     1     -34.303  19.642   8.306  1.00  0.00     0.027 C 
BRANCH  16  17
ATOM     17  C   UNL     1     -33.075  18.937   7.716  1.00  0.00     0.004 C 
BRANCH  17  18
ATOM     18  C   UNL     1     -32.371  19.824   6.685  1.00  0.00     0.000 C 
BRANCH  18  19
ATOM     19  C   UNL     1     -32.680  19.433   5.238  1.00  0.00    -0.003 C 
ATOM     20  C   UNL     1     -33.122  20.604   4.374  1.00  0.00     0.004 C 
ENDBRANCH  18  19
ENDBRANCH  17  18
ENDBRANCH  16  17
ENDBRANCH  15  16
ENDBRANCH  13  14
ENDBRANCH  12  13
ENDBRANCH   1  11
TORSDOF 14
ENDMDL
MODEL 15
REMARK VINA RESULT:    -6.128      1.335      3.460
REMARK INTER + INTRA:         -13.820
REMARK INTER:                 -10.869
REMARK INTRA:                  -2.951
REMARK UNBOUND:                -2.676
REMARK SMILES CCCCC/C=C\C/C=C\CCCCCCCC(=O)[O-]
REMARK SMILES IDX 11 1 12 2 13 3 14 4 15 5 16 6 17 7 18 8 19 9 20 10 10 11
REMARK SMILES IDX 9 12 8 13 7 14 6 15 5 16 4 17 3 18 2 19 1 20
REMARK H PARENT
REMARK INDEX MAP 8 1 6 2 4 3 3 4 5 5 7 6 9 7 18 8 2 9 1 10 12 11 15 12 16 13
REMARK INDEX MAP 19 14 17 15 13 16 10 17 11 18 14 19 20 20
ROOT
ATOM      1  C   UNL     1     -34.617  20.930   9.328  1.00  0.00     0.027 C 
ENDROOT
BRANCH   1   2
ATOM      2  C   UNL     1     -35.848  20.941   8.415  1.00  0.00     0.004 C 
BRANCH   2   3
ATOM      3  C   UNL     1     -36.010  22.249   7.631  1.00  0.00     0.000 C 
BRANCH   3   4
ATOM      4  C   UNL     1     -36.103  22.040   6.116  1.00  0.00     0.000 C 
BRANCH   4   5
ATOM      5  C   UNL     1     -36.464  20.605   5.722  1.00  0.00     0.000 C 
BRANCH   5   6
ATOM      6  C   UNL     1     -37.965  20.471   5.438  1.00  0.00     0.006 C 
BRANCH   6   7
ATOM      7  C   UNL     1     -38.718  19.801   6.586  1.00  0.00     0.053 C 
BRANCH   7   8
ATOM      8  C   UNL     1     -39.686  20.728   7.281  1.00  0.00     0.041 C 
ATOM      9  O   UNL     1     -39.490  21.903   7.551  1.00  0.00    -0.550 OA
ATOM     10  O   UNL     1     -40.846  20.076   7.550  1.00  0.00    -0.550 OA
ENDBRANCH   7   8
ENDBRANCH   6   7
ENDBRANCH   5   6
ENDBRANCH   4   5
ENDBRANCH   3   4
ENDBRANCH   2   3
ENDBRANCH   1   2
BRANCH   1  11
ATOM     11  C   UNL     1     -34.556  22.114  10.250  1.00  0.00    -0.031 C 
ATOM     12  C   UNL     1     -33.629  23.080  10.160  1.00  0.00    -0.027 C 
BRANCH  12  13
ATOM     13  C   UNL     1     -32.540  23.097   9.128  1.00  0.00     0.054 C 
BRANCH  13  14
ATOM     14  C   UNL     1     -32.875  24.018   7.989  1.00  0.00    -0.027 C 
ATOM     15  C   UNL     1     -32.557  23.761   6.711  1.00  0.00    -0.031 C 
BRANCH  15  16
ATOM     16  C   UNL     1     -31.832  22.556   6.174  1.00  0.00     0.027 C 
BRANCH  16  17
ATOM     17  C   UNL     1     -32.659  21.561   5.351  1.00  0.00     0.004 C 
BRANCH  17  18
ATOM     18  C   UNL     1     -32.854  20.245   6.111  1.00  0.00     0.000 C 
BRANCH  18  19
ATOM     19  C   UNL     1     -31.802  20.011   7.198  1.00  0.00    -0.003 C 
ATOM     20  C   UNL     1     -32.016  18.726   7.983  1.00  0.00     0.004 C 
ENDBRANCH  18  19
ENDBRANCH  17  18
ENDBRANCH  16  17
ENDBRANCH  15  16
ENDBRANCH  13  14
ENDBRANCH  12  13
ENDBRANCH   1  11
TORSDOF 14
ENDMDL
MODEL 16
REMARK VINA RESULT:    -6.126      2.661      5.742
REMARK INTER + INTRA:         -13.816
REMARK INTER:                 -11.567
REMARK INTRA:                  -2.249
REMARK UNBOUND:                -2.676
REMARK SMILES CCCCC/C=C\C/C=C\CCCCCCCC(=O)[O-]
REMARK SMILES IDX 11 1 12 2 13 3 14 4 15 5 16 6 17 7 18 8 19 9 20 10 10 11
REMARK SMILES IDX 9 12 8 13 7 14 6 15 5 16 4 17 3 18 2 19 1 20
REMARK H PARENT
REMARK INDEX MAP 8 1 6 2 4 3 3 4 5 5 7 6 9 7 18 8 2 9 1 10 12 11 15 12 16 13
REMARK INDEX MAP 19 14 17 15 13 16 10 17 11 18 14 19 20 20
ROOT
ATOM      1  C   UNL     1     -34.335  19.270   8.322  1.00  0.00     0.027 C 
ENDROOT
BRANCH   1   2
ATOM      2  C   UNL     1     -34.065  19.576   9.800  1.00  0.00     0.004 C 
BRANCH   2   3
ATOM      3  C   UNL     1     -34.738  20.865  10.284  1.00  0.00     0.000 C 
BRANCH   3   4
ATOM      4  C   UNL     1     -34.445  22.075   9.390  1.00  0.00     0.000 C 
BRANCH   4   5
ATOM      5  C   UNL     1     -33.356  22.993   9.949  1.00  0.00     0.000 C 
BRANCH   5   6
ATOM      6  C   UNL     1     -32.325  23.350   8.871  1.00  0.00     0.006 C 
BRANCH   6   7
ATOM      7  C   UNL     1     -32.691  24.626   8.114  1.00  0.00     0.053 C 
BRANCH   7   8
ATOM      8  C   UNL     1     -33.168  24.365   6.706  1.00  0.00     0.041 C 
ATOM      9  O   UNL     1     -34.312  24.495   6.298  1.00  0.00    -0.550 OA
ATOM     10  O   UNL     1     -32.127  23.985   5.923  1.00  0.00    -0.550 OA
ENDBRANCH   7   8
ENDBRANCH   6   7
ENDBRANCH   5   6
ENDBRANCH   4   5
ENDBRANCH   3   4
ENDBRANCH   2   3
ENDBRANCH   1   2
BRANCH   1  11
ATOM     11  C   UNL     1     -33.206  18.534   7.657  1.00  0.00    -0.031 C 
ATOM     12  C   UNL     1     -32.401  19.083   6.735  1.00  0.00    -0.027 C 
BRANCH  12  13
ATOM     13  C   UNL     1     -32.527  20.499   6.255  1.00  0.00     0.054 C 
BRANCH  13  14
ATOM     14  C   UNL     1     -32.781  20.559   4.776  1.00  0.00    -0.027 C 
ATOM     15  C   UNL     1     -33.988  20.798   4.240  1.00  0.00    -0.031 C 
BRANCH  15  16
ATOM     16  C   UNL     1     -35.280  21.043   4.971  1.00  0.00     0.027 C 
BRANCH  16  17
ATOM     17  C   UNL     1     -36.544  20.416   4.371  1.00  0.00     0.004 C 
BRANCH  17  18
ATOM     18  C   UNL     1     -37.700  20.435   5.376  1.00  0.00     0.000 C 
BRANCH  18  19
ATOM     19  C   UNL     1     -37.268  20.829   6.790  1.00  0.00    -0.003 C 
ATOM     20  C   UNL     1     -37.957  22.081   7.308  1.00  0.00     0.004 C 
ENDBRANCH  18  19
ENDBRANCH  17  18
ENDBRANCH  16  17
ENDBRANCH  15  16
ENDBRANCH  13  14
ENDBRANCH  12  13
ENDBRANCH   1  11
TORSDOF 14
ENDMDL
MODEL 17
REMARK VINA RESULT:    -6.094      3.212      6.031
REMARK INTER + INTRA:         -13.757
REMARK INTER:                 -11.312
REMARK INTRA:                  -2.446
REMARK UNBOUND:                -2.676
REMARK SMILES CCCCC/C=C\C/C=C\CCCCCCCC(=O)[O-]
REMARK SMILES IDX 11 1 12 2 13 3 14 4 15 5 16 6 17 7 18 8 19 9 20 10 10 11
REMARK SMILES IDX 9 12 8 13 7 14 6 15 5 16 4 17 3 18 2 19 1 20
REMARK H PARENT
REMARK INDEX MAP 8 1 6 2 4 3 3 4 5 5 7 6 9 7 18 8 2 9 1 10 12 11 15 12 16 13
REMARK INDEX MAP 19 14 17 15 13 16 10 17 11 18 14 19 20 20
ROOT
ATOM      1  C   UNL     1     -36.729  20.781   6.794  1.00  0.00     0.027 C 
ENDROOT
BRANCH   1   2
ATOM      2  C   UNL     1     -37.556  22.012   7.183  1.00  0.00     0.004 C 
BRANCH   2   3
ATOM      3  C   UNL     1     -36.708  23.162   7.737  1.00  0.00     0.000 C 
BRANCH   3   4
ATOM      4  C   UNL     1     -35.605  22.695   8.693  1.00  0.00     0.000 C 
BRANCH   4   5
ATOM      5  C   UNL     1     -34.299  23.480   8.541  1.00  0.00     0.000 C 
BRANCH   5   6
ATOM      6  C   UNL     1     -34.250  24.216   7.197  1.00  0.00     0.006 C 
BRANCH   6   7
ATOM      7  C   UNL     1     -32.851  24.739   6.870  1.00  0.00     0.053 C 
BRANCH   7   8
ATOM      8  C   UNL     1     -31.749  23.903   7.474  1.00  0.00     0.041 C 
ATOM      9  O   UNL     1     -31.421  22.781   7.121  1.00  0.00    -0.550 OA
ATOM     10  O   UNL     1     -31.133  24.591   8.469  1.00  0.00    -0.550 OA
ENDBRANCH   7   8
ENDBRANCH   6   7
ENDBRANCH   5   6
ENDBRANCH   4   5
ENDBRANCH   3   4
ENDBRANCH   2   3
ENDBRANCH   1   2
BRANCH   1  11
ATOM     11  C   UNL     1     -36.649  20.569   5.309  1.00  0.00    -0.031 C 
ATOM     12  C   UNL     1     -35.524  20.724   4.594  1.00  0.00    -0.027 C 
BRANCH  12  13
ATOM     13  C   UNL     1     -34.207  21.126   5.190  1.00  0.00     0.054 C 
BRANCH  13  14
ATOM     14  C   UNL     1     -33.056  20.669   4.341  1.00  0.00    -0.027 C 
ATOM     15  C   UNL     1     -32.423  19.498   4.518  1.00  0.00    -0.031 C 
BRANCH  15  16
ATOM     16  C   UNL     1     -32.718  18.448   5.556  1.00  0.00     0.027 C 
BRANCH  16  17
ATOM     17  C   UNL     1     -31.754  18.363   6.746  1.00  0.00     0.004 C 
BRANCH  17  18
ATOM     18  C   UNL     1     -32.263  19.191   7.929  1.00  0.00     0.000 C 
BRANCH  18  19
ATOM     19  C   UNL     1     -33.748  18.973   8.227  1.00  0.00    -0.003 C 
ATOM     20  C   UNL     1     -34.187  19.538   9.569  1.00  0.00     0.004 C 
ENDBRANCH  18  19
ENDBRANCH  17  18
ENDBRANCH  16  17
ENDBRANCH  15  16
ENDBRANCH  13  14
ENDBRANCH  12  13
ENDBRANCH   1  11
TORSDOF 14
ENDMDL
MODEL 18
REMARK VINA RESULT:    -6.064      1.412      2.615
REMARK INTER + INTRA:         -13.703
REMARK INTER:                 -11.102
REMARK INTRA:                  -2.602
REMARK UNBOUND:                -2.676
REMARK SMILES CCCCC/C=C\C/C=C\CCCCCCCC(=O)[O-]
REMARK SMILES IDX 11 1 12 2 13 3 14 4 15 5 16 6 17 7 18 8 19 9 20 10 10 11
REMARK SMILES IDX 9 12 8 13 7 14 6 15 5 16 4 17 3 18 2 19 1 20
REMARK H PARENT
REMARK INDEX MAP 8 1 6 2 4 3 3 4 5 5 7 6 9 7 18 8 2 9 1 10 12 11 15 12 16 13
REMARK INDEX MAP 19 14 17 15 13 16 10 17 11 18 14 19 20 20
ROOT
ATOM      1  C   UNL     1     -33.992  19.461   8.149  1.00  0.00     0.027 C 
ENDROOT
BRANCH   1   2
ATOM      2  C   UNL     1     -33.285  19.595   6.796  1.00  0.00     0.004 C 
BRANCH   2   3
ATOM      3  C   UNL     1     -33.599  20.911   6.076  1.00  0.00     0.000 C 
BRANCH   3   4
ATOM      4  C   UNL     1     -34.310  20.713   4.733  1.00  0.00     0.000 C 
BRANCH   4   5
ATOM      5  C   UNL     1     -35.668  21.414   4.655  1.00  0.00     0.000 C 
BRANCH   5   6
ATOM      6  C   UNL     1     -36.809  20.398   4.526  1.00  0.00     0.006 C 
BRANCH   6   7
ATOM      7  C   UNL     1     -37.755  20.428   5.726  1.00  0.00     0.053 C 
BRANCH   7   8
ATOM      8  C   UNL     1     -39.212  20.446   5.332  1.00  0.00     0.041 C 
ATOM      9  O   UNL     1     -39.655  20.693   4.221  1.00  0.00    -0.550 OA
ATOM     10  O   UNL     1     -39.988  20.112   6.396  1.00  0.00    -0.550 OA
ENDBRANCH   7   8
ENDBRANCH   6   7
ENDBRANCH   5   6
ENDBRANCH   4   5
ENDBRANCH   3   4
ENDBRANCH   2   3
ENDBRANCH   1   2
BRANCH   1  11
ATOM     11  C   UNL     1     -35.160  20.395   8.300  1.00  0.00    -0.031 C 
ATOM     12  C   UNL     1     -35.334  21.204   9.356  1.00  0.00    -0.027 C 
BRANCH  12  13
ATOM     13  C   UNL     1     -34.385  21.277  10.516  1.00  0.00     0.054 C 
BRANCH  13  14
ATOM     14  C   UNL     1     -34.015  22.697  10.836  1.00  0.00    -0.027 C 
ATOM     15  C   UNL     1     -33.151  23.420  10.106  1.00  0.00    -0.031 C 
BRANCH  15  16
ATOM     16  C   UNL     1     -32.406  22.982   8.874  1.00  0.00     0.027 C 
BRANCH  16  17
ATOM     17  C   UNL     1     -32.044  24.075   7.860  1.00  0.00     0.004 C 
BRANCH  17  18
ATOM     18  C   UNL     1     -33.260  24.945   7.529  1.00  0.00     0.000 C 
BRANCH  18  19
ATOM     19  C   UNL     1     -34.366  24.186   6.793  1.00  0.00    -0.003 C 
ATOM     20  C   UNL     1     -35.676  24.124   7.562  1.00  0.00     0.004 C 
ENDBRANCH  18  19
ENDBRANCH  17  18
ENDBRANCH  16  17
ENDBRANCH  15  16
ENDBRANCH  13  14
ENDBRANCH  12  13
ENDBRANCH   1  11
TORSDOF 14
ENDMDL
MODEL 19
REMARK VINA RESULT:    -6.024      3.198      4.973
REMARK INTER + INTRA:         -13.629
REMARK INTER:                 -11.447
REMARK INTRA:                  -2.182
REMARK UNBOUND:                -2.676
REMARK SMILES CCCCC/C=C\C/C=C\CCCCCCCC(=O)[O-]
REMARK SMILES IDX 11 1 12 2 13 3 14 4 15 5 16 6 17 7 18 8 19 9 20 10 10 11
REMARK SMILES IDX 9 12 8 13 7 14 6 15 5 16 4 17 3 18 2 19 1 20
REMARK H PARENT
REMARK INDEX MAP 8 1 6 2 4 3 3 4 5 5 7 6 9 7 18 8 2 9 1 10 12 11 15 12 16 13
REMARK INDEX MAP 19 14 17 15 13 16 10 17 11 18 14 19 20 20
ROOT
ATOM      1  C   UNL     1     -38.133  20.793   4.539  1.00  0.00     0.027 C 
ENDROOT
BRANCH   1   2
ATOM      2  C   UNL     1     -36.758  20.446   3.957  1.00  0.00     0.004 C 
BRANCH   2   3
ATOM      3  C   UNL     1     -35.599  21.129   4.692  1.00  0.00     0.000 C 
BRANCH   3   4
ATOM      4  C   UNL     1     -34.227  20.552   4.327  1.00  0.00     0.000 C 
BRANCH   4   5
ATOM      5  C   UNL     1     -33.098  21.055   5.231  1.00  0.00     0.000 C 
BRANCH   5   6
ATOM      6  C   UNL     1     -33.171  20.407   6.619  1.00  0.00     0.006 C 
BRANCH   6   7
ATOM      7  C   UNL     1     -33.121  18.881   6.553  1.00  0.00     0.053 C 
BRANCH   7   8
ATOM      8  C   UNL     1     -31.765  18.316   6.904  1.00  0.00     0.041 C 
ATOM      9  O   UNL     1     -30.992  17.770   6.132  1.00  0.00    -0.550 OA
ATOM     10  O   UNL     1     -31.498  18.525   8.218  1.00  0.00    -0.550 OA
ENDBRANCH   7   8
ENDBRANCH   6   7
ENDBRANCH   5   6
ENDBRANCH   4   5
ENDBRANCH   3   4
ENDBRANCH   2   3
ENDBRANCH   1   2
BRANCH   1  11
ATOM     11  C   UNL     1     -38.644  19.760   5.503  1.00  0.00    -0.031 C 
ATOM     12  C   UNL     1     -38.646  19.921   6.835  1.00  0.00    -0.027 C 
BRANCH  12  13
ATOM     13  C   UNL     1     -38.141  21.153   7.526  1.00  0.00     0.054 C 
BRANCH  13  14
ATOM     14  C   UNL     1     -36.745  20.961   8.045  1.00  0.00    -0.027 C 
ATOM     15  C   UNL     1     -35.833  21.944   8.101  1.00  0.00    -0.031 C 
BRANCH  15  16
ATOM     16  C   UNL     1     -36.008  23.377   7.674  1.00  0.00     0.027 C 
BRANCH  16  17
ATOM     17  C   UNL     1     -34.733  24.156   7.329  1.00  0.00     0.004 C 
BRANCH  17  18
ATOM     18  C   UNL     1     -33.556  23.702   8.198  1.00  0.00     0.000 C 
BRANCH  18  19
ATOM     19  C   UNL     1     -32.421  24.726   8.265  1.00  0.00    -0.003 C 
ATOM     20  C   UNL     1     -31.901  25.147   6.899  1.00  0.00     0.004 C 
ENDBRANCH  18  19
ENDBRANCH  17  18
ENDBRANCH  16  17
ENDBRANCH  15  16
ENDBRANCH  13  14
ENDBRANCH  12  13
ENDBRANCH   1  11
TORSDOF 14
ENDMDL
MODEL 20
REMARK VINA RESULT:    -6.008      2.821      5.264
REMARK INTER + INTRA:         -13.601
REMARK INTER:                 -11.049
REMARK INTRA:                  -2.552
REMARK UNBOUND:                -2.676
REMARK SMILES CCCCC/C=C\C/C=C\CCCCCCCC(=O)[O-]
REMARK SMILES IDX 11 1 12 2 13 3 14 4 15 5 16 6 17 7 18 8 19 9 20 10 10 11
REMARK SMILES IDX 9 12 8 13 7 14 6 15 5 16 4 17 3 18 2 19 1 20
REMARK H PARENT
REMARK INDEX MAP 8 1 6 2 4 3 3 4 5 5 7 6 9 7 18 8 2 9 1 10 12 11 15 12 16 13
REMARK INDEX MAP 19 14 17 15 13 16 10 17 11 18 14 19 20 20
ROOT
ATOM      1  C   UNL     1     -33.079  24.923   7.097  1.00  0.00     0.027 C 
ENDROOT
BRANCH   1   2
ATOM      2  C   UNL     1     -34.443  24.271   6.847  1.00  0.00     0.004 C 
BRANCH   2   3
ATOM      3  C   UNL     1     -35.095  23.721   8.121  1.00  0.00     0.000 C 
BRANCH   3   4
ATOM      4  C   UNL     1     -36.121  22.616   7.848  1.00  0.00     0.000 C 
BRANCH   4   5
ATOM      5  C   UNL     1     -35.626  21.220   8.234  1.00  0.00     0.000 C 
BRANCH   5   6
ATOM      6  C   UNL     1     -34.882  21.248   9.574  1.00  0.00     0.006 C 
BRANCH   6   7
ATOM      7  C   UNL     1     -34.383  19.865   9.994  1.00  0.00     0.053 C 
BRANCH   7   8
ATOM      8  C   UNL     1     -34.352  19.675  11.491  1.00  0.00     0.041 C 
ATOM      9  O   UNL     1     -35.117  20.181  12.297  1.00  0.00    -0.550 OA
ATOM     10  O   UNL     1     -33.353  18.820  11.832  1.00  0.00    -0.550 OA
ENDBRANCH   7   8
ENDBRANCH   6   7
ENDBRANCH   5   6
ENDBRANCH   4   5
ENDBRANCH   3   4
ENDBRANCH   2   3
ENDBRANCH   1   2
BRANCH   1  11
ATOM     11  C   UNL     1     -32.379  24.381   8.311  1.00  0.00    -0.031 C 
ATOM     12  C   UNL     1     -31.794  23.174   8.356  1.00  0.00    -0.027 C 
BRANCH  12  13
ATOM     13  C   UNL     1     -31.765  22.219   7.200  1.00  0.00     0.054 C 
BRANCH  13  14
ATOM     14  C   UNL     1     -31.214  20.881   7.605  1.00  0.00    -0.027 C 
ATOM     15  C   UNL     1     -31.769  19.712   7.246  1.00  0.00    -0.031 C 
BRANCH  15  16
ATOM     16  C   UNL     1     -33.000  19.505   6.406  1.00  0.00     0.027 C 
BRANCH  16  17
ATOM     17  C   UNL     1     -32.793  19.396   4.890  1.00  0.00     0.004 C 
BRANCH  17  18
ATOM     18  C   UNL     1     -33.214  20.687   4.182  1.00  0.00     0.000 C 
BRANCH  18  19
ATOM     19  C   UNL     1     -34.452  21.340   4.798  1.00  0.00    -0.003 C 
ATOM     20  C   UNL     1     -35.759  20.698   4.360  1.00  0.00     0.004 C 
ENDBRANCH  18  19
ENDBRANCH  17  18
ENDBRANCH  16  17
ENDBRANCH  15  16
ENDBRANCH  13  14
ENDBRANCH  12  13
ENDBRANCH   1  11
TORSDOF 14
ENDMDL
