MODEL 1
REMARK VINA RESULT:    -6.630      0.000      0.000
REMARK INTER + INTRA:         -14.567
REMARK INTER:                 -12.056
REMARK INTRA:                  -2.511
REMARK UNBOUND:                -2.511
REMARK SMILES CCCCC/C=C\C/C=C\CCCCCCCC(=O)[O-]
REMARK SMILES IDX 11 1 12 2 13 3 14 4 15 5 16 6 17 7 18 8 19 9 20 10 10 11
REMARK SMILES IDX 9 12 8 13 7 14 6 15 5 16 4 17 3 18 2 19 1 20
REMARK H PARENT
REMARK INDEX MAP 8 1 6 2 4 3 3 4 5 5 7 6 9 7 18 8 2 9 1 10 12 11 15 12 16 13
REMARK INDEX MAP 19 14 17 15 13 16 10 17 11 18 14 19 20 20
ROOT
ATOM      1  C   UNL     1     -32.165  22.714   8.144  1.00  0.00     0.027 C 
ENDROOT
BRANCH   1   2
ATOM      2  C   UNL     1     -31.393  21.957   7.058  1.00  0.00     0.004 C 
BRANCH   2   3
ATOM      3  C   UNL     1     -31.981  22.143   5.655  1.00  0.00     0.000 C 
BRANCH   3   4
ATOM      4  C   UNL     1     -33.198  21.252   5.385  1.00  0.00     0.000 C 
BRANCH   4   5
ATOM      5  C   UNL     1     -32.964  20.225   4.275  1.00  0.00     0.000 C 
BRANCH   5   6
ATOM      6  C   UNL     1     -32.366  18.930   4.836  1.00  0.00     0.006 C 
BRANCH   6   7
ATOM      7  C   UNL     1     -32.893  18.601   6.233  1.00  0.00     0.053 C 
BRANCH   7   8
ATOM      8  C   UNL     1     -31.795  18.325   7.231  1.00  0.00     0.041 C 
ATOM      9  O   UNL     1     -31.834  18.562   8.429  1.00  0.00    -0.550 OA
ATOM     10  O   UNL     1     -30.740  17.735   6.614  1.00  0.00    -0.550 OA
ENDBRANCH   7   8
ENDBRANCH   6   7
ENDBRANCH   5   6
ENDBRANCH   4   5
ENDBRANCH   3   4
ENDBRANCH   2   3
ENDBRANCH   1   2
BRANCH   1  11
ATOM     11  C   UNL     1     -31.991  24.204   8.062  1.00  0.00    -0.031 C 
ATOM     12  C   UNL     1     -32.867  25.025   7.463  1.00  0.00    -0.027 C 
BRANCH  12  13
ATOM     13  C   UNL     1     -34.130  24.556   6.803  1.00  0.00     0.054 C 
BRANCH  13  14
ATOM     14  C   UNL     1     -35.269  24.484   7.780  1.00  0.00    -0.027 C 
ATOM     15  C   UNL     1     -36.026  23.389   7.956  1.00  0.00    -0.031 C 
BRANCH  15  16
ATOM     16  C   UNL     1     -35.902  22.069   7.245  1.00  0.00     0.027 C 
BRANCH  16  17
ATOM     17  C   UNL     1     -35.932  20.808   8.118  1.00  0.00     0.004 C 
BRANCH  17  18
ATOM     18  C   UNL     1     -34.639  20.666   8.925  1.00  0.00     0.000 C 
BRANCH  18  19
ATOM     19  C   UNL     1     -34.838  20.867  10.429  1.00  0.00    -0.003 C 
ATOM     20  C   UNL     1     -34.259  22.174  10.949  1.00  0.00     0.004 C 
ENDBRANCH  18  19
ENDBRANCH  17  18
ENDBRANCH  16  17
ENDBRANCH  15  16
ENDBRANCH  13  14
ENDBRANCH  12  13
ENDBRANCH   1  11
TORSDOF 14
ENDMDL
MODEL 2
REMARK VINA RESULT:    -6.584      3.311      4.721
REMARK INTER + INTRA:         -14.484
REMARK INTER:                 -11.875
REMARK INTRA:                  -2.609
REMARK UNBOUND:                -2.511
REMARK SMILES CCCCC/C=C\C/C=C\CCCCCCCC(=O)[O-]
REMARK SMILES IDX 11 1 12 2 13 3 14 4 15 5 16 6 17 7 18 8 19 9 20 10 10 11
REMARK SMILES IDX 9 12 8 13 7 14 6 15 5 16 4 17 3 18 2 19 1 20
REMARK H PARENT
REMARK INDEX MAP 8 1 6 2 4 3 3 4 5 5 7 6 9 7 18 8 2 9 1 10 12 11 15 12 16 13
REMARK INDEX MAP 19 14 17 15 13 16 10 17 11 18 14 19 20 20
ROOT
ATOM      1  C   UNL     1     -32.497  20.009   6.021  1.00  0.00     0.027 C 
ENDROOT
BRANCH   1   2
ATOM      2  C   UNL     1     -34.030  20.017   5.976  1.00  0.00     0.004 C 
BRANCH   2   3
ATOM      3  C   UNL     1     -34.598  20.821   4.802  1.00  0.00     0.000 C 
BRANCH   3   4
ATOM      4  C   UNL     1     -36.012  21.354   5.059  1.00  0.00     0.000 C 
BRANCH   4   5
ATOM      5  C   UNL     1     -37.110  20.475   4.455  1.00  0.00     0.000 C 
BRANCH   5   6
ATOM      6  C   UNL     1     -38.172  20.119   5.503  1.00  0.00     0.006 C 
BRANCH   6   7
ATOM      7  C   UNL     1     -38.084  21.003   6.746  1.00  0.00     0.053 C 
BRANCH   7   8
ATOM      8  C   UNL     1     -39.434  21.441   7.259  1.00  0.00     0.041 C 
ATOM      9  O   UNL     1     -39.991  22.499   7.009  1.00  0.00    -0.550 OA
ATOM     10  O   UNL     1     -39.978  20.467   8.033  1.00  0.00    -0.550 OA
ENDBRANCH   7   8
ENDBRANCH   6   7
ENDBRANCH   5   6
ENDBRANCH   4   5
ENDBRANCH   3   4
ENDBRANCH   2   3
ENDBRANCH   1   2
BRANCH   1  11
ATOM     11  C   UNL     1     -31.940  20.620   7.275  1.00  0.00    -0.031 C 
ATOM     12  C   UNL     1     -31.682  21.929   7.413  1.00  0.00    -0.027 C 
BRANCH  12  13
ATOM     13  C   UNL     1     -31.918  22.944   6.334  1.00  0.00     0.054 C 
BRANCH  13  14
ATOM     14  C   UNL     1     -32.189  24.306   6.908  1.00  0.00    -0.027 C 
ATOM     15  C   UNL     1     -33.422  24.767   7.171  1.00  0.00    -0.031 C 
BRANCH  15  16
ATOM     16  C   UNL     1     -34.730  24.054   6.955  1.00  0.00     0.027 C 
BRANCH  16  17
ATOM     17  C   UNL     1     -35.496  23.619   8.210  1.00  0.00     0.004 C 
BRANCH  17  18
ATOM     18  C   UNL     1     -35.114  22.194   8.623  1.00  0.00     0.000 C 
BRANCH  18  19
ATOM     19  C   UNL     1     -34.416  22.123   9.983  1.00  0.00    -0.003 C 
ATOM     20  C   UNL     1     -34.768  20.878  10.782  1.00  0.00     0.004 C 
ENDBRANCH  18  19
ENDBRANCH  17  18
ENDBRANCH  16  17
ENDBRANCH  15  16
ENDBRANCH  13  14
ENDBRANCH  12  13
ENDBRANCH   1  11
TORSDOF 14
ENDMDL
MODEL 3
REMARK VINA RESULT:    -6.507      2.037      3.794
REMARK INTER + INTRA:         -14.343
REMARK INTER:                 -11.338
REMARK INTRA:                  -3.005
REMARK UNBOUND:                -2.511
REMARK SMILES CCCCC/C=C\C/C=C\CCCCCCCC(=O)[O-]
REMARK SMILES IDX 11 1 12 2 13 3 14 4 15 5 16 6 17 7 18 8 19 9 20 10 10 11
REMARK SMILES IDX 9 12 8 13 7 14 6 15 5 16 4 17 3 18 2 19 1 20
REMARK H PARENT
REMARK INDEX MAP 8 1 6 2 4 3 3 4 5 5 7 6 9 7 18 8 2 9 1 10 12 11 15 12 16 13
REMARK INDEX MAP 19 14 17 15 13 16 10 17 11 18 14 19 20 20
ROOT
ATOM      1  C   UNL     1     -34.807  21.524  10.012  1.00  0.00     0.027 C 
ENDROOT
BRANCH   1   2
ATOM      2  C   UNL     1     -34.336  20.153  10.511  1.00  0.00     0.004 C 
BRANCH   2   3
ATOM      3  C   UNL     1     -33.836  19.239   9.387  1.00  0.00     0.000 C 
BRANCH   3   4
ATOM      4  C   UNL     1     -34.126  19.787   7.985  1.00  0.00     0.000 C 
BRANCH   4   5
ATOM      5  C   UNL     1     -33.424  19.006   6.872  1.00  0.00     0.000 C 
BRANCH   5   6
ATOM      6  C   UNL     1     -32.364  19.868   6.175  1.00  0.00     0.006 C 
BRANCH   6   7
ATOM      7  C   UNL     1     -32.965  21.098   5.497  1.00  0.00     0.053 C 
BRANCH   7   8
ATOM      8  C   UNL     1     -33.765  20.762   4.261  1.00  0.00     0.041 C 
ATOM      9  O   UNL     1     -34.980  20.664   4.195  1.00  0.00    -0.550 OA
ATOM     10  O   UNL     1     -32.936  20.609   3.197  1.00  0.00    -0.550 OA
ENDBRANCH   7   8
ENDBRANCH   6   7
ENDBRANCH   5   6
ENDBRANCH   4   5
ENDBRANCH   3   4
ENDBRANCH   2   3
ENDBRANCH   1   2
BRANCH   1  11
ATOM     11  C   UNL     1     -34.075  22.668  10.654  1.00  0.00    -0.031 C 
ATOM     12  C   UNL     1     -33.049  23.313  10.078  1.00  0.00    -0.027 C 
BRANCH  12  13
ATOM     13  C   UNL     1     -32.508  22.973   8.721  1.00  0.00     0.054 C 
BRANCH  13  14
ATOM     14  C   UNL     1     -32.510  24.169   7.811  1.00  0.00    -0.027 C 
ATOM     15  C   UNL     1     -33.540  24.490   7.013  1.00  0.00    -0.031 C 
BRANCH  15  16
ATOM     16  C   UNL     1     -34.845  23.756   6.865  1.00  0.00     0.027 C 
BRANCH  16  17
ATOM     17  C   UNL     1     -35.978  24.161   7.817  1.00  0.00     0.004 C 
BRANCH  17  18
ATOM     18  C   UNL     1     -37.137  23.163   7.751  1.00  0.00     0.000 C 
BRANCH  18  19
ATOM     19  C   UNL     1     -36.845  21.952   6.863  1.00  0.00    -0.003 C 
ATOM     20  C   UNL     1     -37.684  20.730   7.206  1.00  0.00     0.004 C 
ENDBRANCH  18  19
ENDBRANCH  17  18
ENDBRANCH  16  17
ENDBRANCH  15  16
ENDBRANCH  13  14
ENDBRANCH  12  13
ENDBRANCH   1  11
TORSDOF 14
ENDMDL
MODEL 4
REMARK VINA RESULT:    -6.484      3.136      5.351
REMARK INTER + INTRA:         -14.301
REMARK INTER:                 -11.518
REMARK INTRA:                  -2.783
REMARK UNBOUND:                -2.511
REMARK SMILES CCCCC/C=C\C/C=C\CCCCCCCC(=O)[O-]
REMARK SMILES IDX 11 1 12 2 13 3 14 4 15 5 16 6 17 7 18 8 19 9 20 10 10 11
REMARK SMILES IDX 9 12 8 13 7 14 6 15 5 16 4 17 3 18 2 19 1 20
REMARK H PARENT
REMARK INDEX MAP 8 1 6 2 4 3 3 4 5 5 7 6 9 7 18 8 2 9 1 10 12 11 15 12 16 13
REMARK INDEX MAP 19 14 17 15 13 16 10 17 11 18 14 19 20 20
ROOT
ATOM      1  C   UNL     1     -32.484  20.434   6.047  1.00  0.00     0.027 C 
ENDROOT
BRANCH   1   2
ATOM      2  C   UNL     1     -33.506  21.383   5.411  1.00  0.00     0.004 C 
BRANCH   2   3
ATOM      3  C   UNL     1     -34.668  20.653   4.729  1.00  0.00     0.000 C 
BRANCH   3   4
ATOM      4  C   UNL     1     -36.043  21.217   5.104  1.00  0.00     0.000 C 
BRANCH   4   5
ATOM      5  C   UNL     1     -36.049  21.959   6.443  1.00  0.00     0.000 C 
BRANCH   5   6
ATOM      6  C   UNL     1     -37.404  21.819   7.147  1.00  0.00     0.006 C 
BRANCH   6   7
ATOM      7  C   UNL     1     -37.946  20.391   7.089  1.00  0.00     0.053 C 
BRANCH   7   8
ATOM      8  C   UNL     1     -39.420  20.329   6.766  1.00  0.00     0.041 C 
ATOM      9  O   UNL     1     -40.327  20.171   7.569  1.00  0.00    -0.550 OA
ATOM     10  O   UNL     1     -39.613  20.505   5.434  1.00  0.00    -0.550 OA
ENDBRANCH   7   8
ENDBRANCH   6   7
ENDBRANCH   5   6
ENDBRANCH   4   5
ENDBRANCH   3   4
ENDBRANCH   2   3
ENDBRANCH   1   2
BRANCH   1  11
ATOM     11  C   UNL     1     -33.045  19.071   6.337  1.00  0.00    -0.031 C 
ATOM     12  C   UNL     1     -33.425  18.666   7.558  1.00  0.00    -0.027 C 
BRANCH  12  13
ATOM     13  C   UNL     1     -33.338  19.524   8.785  1.00  0.00     0.054 C 
BRANCH  13  14
ATOM     14  C   UNL     1     -34.701  19.900   9.292  1.00  0.00    -0.027 C 
ATOM     15  C   UNL     1     -34.980  21.085   9.858  1.00  0.00    -0.031 C 
BRANCH  15  16
ATOM     16  C   UNL     1     -34.033  22.231  10.093  1.00  0.00     0.027 C 
BRANCH  16  17
ATOM     17  C   UNL     1     -33.698  23.111   8.883  1.00  0.00     0.004 C 
BRANCH  17  18
ATOM     18  C   UNL     1     -32.203  23.440   8.838  1.00  0.00     0.000 C 
BRANCH  18  19
ATOM     19  C   UNL     1     -31.873  24.639   7.946  1.00  0.00    -0.003 C 
ATOM     20  C   UNL     1     -32.957  24.954   6.927  1.00  0.00     0.004 C 
ENDBRANCH  18  19
ENDBRANCH  17  18
ENDBRANCH  16  17
ENDBRANCH  15  16
ENDBRANCH  13  14
ENDBRANCH  12  13
ENDBRANCH   1  11
TORSDOF 14
ENDMDL
MODEL 5
REMARK VINA RESULT:    -6.393      1.911      3.261
REMARK INTER + INTRA:         -14.135
REMARK INTER:                 -11.289
REMARK INTRA:                  -2.846
REMARK UNBOUND:                -2.511
REMARK SMILES CCCCC/C=C\C/C=C\CCCCCCCC(=O)[O-]
REMARK SMILES IDX 11 1 12 2 13 3 14 4 15 5 16 6 17 7 18 8 19 9 20 10 10 11
REMARK SMILES IDX 9 12 8 13 7 14 6 15 5 16 4 17 3 18 2 19 1 20
REMARK H PARENT
REMARK INDEX MAP 8 1 6 2 4 3 3 4 5 5 7 6 9 7 18 8 2 9 1 10 12 11 15 12 16 13
REMARK INDEX MAP 19 14 17 15 13 16 10 17 11 18 14 19 20 20
ROOT
ATOM      1  C   UNL     1     -33.751  23.289   9.585  1.00  0.00     0.027 C 
ENDROOT
BRANCH   1   2
ATOM      2  C   UNL     1     -32.367  23.518   8.965  1.00  0.00     0.004 C 
BRANCH   2   3
ATOM      3  C   UNL     1     -32.425  24.138   7.565  1.00  0.00     0.000 C 
BRANCH   3   4
ATOM      4  C   UNL     1     -31.921  23.198   6.465  1.00  0.00     0.000 C 
BRANCH   4   5
ATOM      5  C   UNL     1     -31.750  21.751   6.934  1.00  0.00     0.000 C 
BRANCH   5   6
ATOM      6  C   UNL     1     -32.409  20.770   5.956  1.00  0.00     0.006 C 
BRANCH   6   7
ATOM      7  C   UNL     1     -32.932  19.515   6.652  1.00  0.00     0.053 C 
BRANCH   7   8
ATOM      8  C   UNL     1     -31.830  18.600   7.132  1.00  0.00     0.041 C 
ATOM      9  O   UNL     1     -31.439  18.487   8.283  1.00  0.00    -0.550 OA
ATOM     10  O   UNL     1     -31.338  17.878   6.094  1.00  0.00    -0.550 OA
ENDBRANCH   7   8
ENDBRANCH   6   7
ENDBRANCH   5   6
ENDBRANCH   4   5
ENDBRANCH   3   4
ENDBRANCH   2   3
ENDBRANCH   1   2
BRANCH   1  11
ATOM     11  C   UNL     1     -34.231  21.872   9.448  1.00  0.00    -0.031 C 
ATOM     12  C   UNL     1     -35.270  21.509   8.681  1.00  0.00    -0.027 C 
BRANCH  12  13
ATOM     13  C   UNL     1     -36.079  22.472   7.864  1.00  0.00     0.054 C 
BRANCH  13  14
ATOM     14  C   UNL     1     -35.539  22.600   6.468  1.00  0.00    -0.027 C 
ATOM     15  C   UNL     1     -35.806  21.723   5.487  1.00  0.00    -0.031 C 
BRANCH  15  16
ATOM     16  C   UNL     1     -36.658  20.486   5.575  1.00  0.00     0.027 C 
BRANCH  16  17
ATOM     17  C   UNL     1     -38.169  20.673   5.391  1.00  0.00     0.004 C 
BRANCH  17  18
ATOM     18  C   UNL     1     -38.956  19.861   6.424  1.00  0.00     0.000 C 
BRANCH  18  19
ATOM     19  C   UNL     1     -39.354  20.675   7.658  1.00  0.00    -0.003 C 
ATOM     20  C   UNL     1     -39.597  22.147   7.362  1.00  0.00     0.004 C 
ENDBRANCH  18  19
ENDBRANCH  17  18
ENDBRANCH  16  17
ENDBRANCH  15  16
ENDBRANCH  13  14
ENDBRANCH  12  13
ENDBRANCH   1  11
TORSDOF 14
ENDMDL
MODEL 6
REMARK VINA RESULT:    -6.372      1.413      3.970
REMARK INTER + INTRA:         -14.097
REMARK INTER:                 -12.250
REMARK INTRA:                  -1.847
REMARK UNBOUND:                -2.511
REMARK SMILES CCCCC/C=C\C/C=C\CCCCCCCC(=O)[O-]
REMARK SMILES IDX 11 1 12 2 13 3 14 4 15 5 16 6 17 7 18 8 19 9 20 10 10 11
REMARK SMILES IDX 9 12 8 13 7 14 6 15 5 16 4 17 3 18 2 19 1 20
REMARK H PARENT
REMARK INDEX MAP 8 1 6 2 4 3 3 4 5 5 7 6 9 7 18 8 2 9 1 10 12 11 15 12 16 13
REMARK INDEX MAP 19 14 17 15 13 16 10 17 11 18 14 19 20 20
ROOT
ATOM      1  C   UNL     1     -37.190  20.757   6.734  1.00  0.00     0.027 C 
ENDROOT
BRANCH   1   2
ATOM      2  C   UNL     1     -37.428  20.569   5.231  1.00  0.00     0.004 C 
BRANCH   2   3
ATOM      3  C   UNL     1     -36.173  20.803   4.384  1.00  0.00     0.000 C 
BRANCH   3   4
ATOM      4  C   UNL     1     -34.870  20.534   5.143  1.00  0.00     0.000 C 
BRANCH   4   5
ATOM      5  C   UNL     1     -33.645  20.435   4.231  1.00  0.00     0.000 C 
BRANCH   5   6
ATOM      6  C   UNL     1     -32.518  19.641   4.902  1.00  0.00     0.006 C 
BRANCH   6   7
ATOM      7  C   UNL     1     -32.723  19.498   6.409  1.00  0.00     0.053 C 
BRANCH   7   8
ATOM      8  C   UNL     1     -31.743  18.548   7.054  1.00  0.00     0.041 C 
ATOM      9  O   UNL     1     -31.540  18.425   8.252  1.00  0.00    -0.550 OA
ATOM     10  O   UNL     1     -31.120  17.804   6.104  1.00  0.00    -0.550 OA
ENDBRANCH   7   8
ENDBRANCH   6   7
ENDBRANCH   5   6
ENDBRANCH   4   5
ENDBRANCH   3   4
ENDBRANCH   2   3
ENDBRANCH   1   2
BRANCH   1  11
ATOM     11  C   UNL     1     -37.073  22.200   7.136  1.00  0.00    -0.031 C 
ATOM     12  C   UNL     1     -36.138  22.665   7.978  1.00  0.00    -0.027 C 
BRANCH  12  13
ATOM     13  C   UNL     1     -35.093  21.802   8.621  1.00  0.00     0.054 C 
BRANCH  13  14
ATOM     14  C   UNL     1     -34.641  22.372   9.936  1.00  0.00    -0.027 C 
ATOM     15  C   UNL     1     -33.474  23.014  10.103  1.00  0.00    -0.031 C 
BRANCH  15  16
ATOM     16  C   UNL     1     -32.422  23.284   9.061  1.00  0.00     0.027 C 
BRANCH  16  17
ATOM     17  C   UNL     1     -32.092  24.754   8.777  1.00  0.00     0.004 C 
BRANCH  17  18
ATOM     18  C   UNL     1     -32.401  25.119   7.322  1.00  0.00     0.000 C 
BRANCH  18  19
ATOM     19  C   UNL     1     -32.897  23.933   6.493  1.00  0.00    -0.003 C 
ATOM     20  C   UNL     1     -31.776  23.062   5.947  1.00  0.00     0.004 C 
ENDBRANCH  18  19
ENDBRANCH  17  18
ENDBRANCH  16  17
ENDBRANCH  15  16
ENDBRANCH  13  14
ENDBRANCH  12  13
ENDBRANCH   1  11
TORSDOF 14
ENDMDL
MODEL 7
REMARK VINA RESULT:    -6.350      3.184      5.655
REMARK INTER + INTRA:         -14.058
REMARK INTER:                 -11.334
REMARK INTRA:                  -2.724
REMARK UNBOUND:                -2.511
REMARK SMILES CCCCC/C=C\C/C=C\CCCCCCCC(=O)[O-]
REMARK SMILES IDX 11 1 12 2 13 3 14 4 15 5 16 6 17 7 18 8 19 9 20 10 10 11
REMARK SMILES IDX 9 12 8 13 7 14 6 15 5 16 4 17 3 18 2 19 1 20
REMARK H PARENT
REMARK INDEX MAP 8 1 6 2 4 3 3 4 5 5 7 6 9 7 18 8 2 9 1 10 12 11 15 12 16 13
REMARK INDEX MAP 19 14 17 15 13 16 10 17 11 18 14 19 20 20
ROOT
ATOM      1  C   UNL     1     -34.537  21.806   9.288  1.00  0.00     0.027 C 
ENDROOT
BRANCH   1   2
ATOM      2  C   UNL     1     -35.847  21.912   8.498  1.00  0.00     0.004 C 
BRANCH   2   3
ATOM      3  C   UNL     1     -35.757  22.862   7.300  1.00  0.00     0.000 C 
BRANCH   3   4
ATOM      4  C   UNL     1     -35.625  22.134   5.957  1.00  0.00     0.000 C 
BRANCH   4   5
ATOM      5  C   UNL     1     -36.125  20.688   6.000  1.00  0.00     0.000 C 
BRANCH   5   6
ATOM      6  C   UNL     1     -37.599  20.600   5.586  1.00  0.00     0.006 C 
BRANCH   6   7
ATOM      7  C   UNL     1     -38.447  19.841   6.606  1.00  0.00     0.053 C 
BRANCH   7   8
ATOM      8  C   UNL     1     -39.552  20.681   7.200  1.00  0.00     0.041 C 
ATOM      9  O   UNL     1     -40.623  20.269   7.619  1.00  0.00    -0.550 OA
ATOM     10  O   UNL     1     -39.179  21.985   7.238  1.00  0.00    -0.550 OA
ENDBRANCH   7   8
ENDBRANCH   6   7
ENDBRANCH   5   6
ENDBRANCH   4   5
ENDBRANCH   3   4
ENDBRANCH   2   3
ENDBRANCH   1   2
BRANCH   1  11
ATOM     11  C   UNL     1     -34.483  20.600  10.182  1.00  0.00    -0.031 C 
ATOM     12  C   UNL     1     -34.202  19.362   9.746  1.00  0.00    -0.027 C 
BRANCH  12  13
ATOM     13  C   UNL     1     -33.906  19.031   8.313  1.00  0.00     0.054 C 
BRANCH  13  14
ATOM     14  C   UNL     1     -32.433  18.850   8.082  1.00  0.00    -0.027 C 
ATOM     15  C   UNL     1     -31.688  19.697   7.354  1.00  0.00    -0.031 C 
BRANCH  15  16
ATOM     16  C   UNL     1     -32.148  20.944   6.648  1.00  0.00     0.027 C 
BRANCH  16  17
ATOM     17  C   UNL     1     -31.713  22.283   7.256  1.00  0.00     0.004 C 
BRANCH  17  18
ATOM     18  C   UNL     1     -32.196  23.459   6.402  1.00  0.00     0.000 C 
BRANCH  18  19
ATOM     19  C   UNL     1     -32.474  24.725   7.216  1.00  0.00    -0.003 C 
ATOM     20  C   UNL     1     -31.923  24.669   8.633  1.00  0.00     0.004 C 
ENDBRANCH  18  19
ENDBRANCH  17  18
ENDBRANCH  16  17
ENDBRANCH  15  16
ENDBRANCH  13  14
ENDBRANCH  12  13
ENDBRANCH   1  11
TORSDOF 14
ENDMDL
MODEL 8
REMARK VINA RESULT:    -6.326      1.505      2.768
REMARK INTER + INTRA:         -14.014
REMARK INTER:                 -11.623
REMARK INTRA:                  -2.391
REMARK UNBOUND:                -2.511
REMARK SMILES CCCCC/C=C\C/C=C\CCCCCCCC(=O)[O-]
REMARK SMILES IDX 11 1 12 2 13 3 14 4 15 5 16 6 17 7 18 8 19 9 20 10 10 11
REMARK SMILES IDX 9 12 8 13 7 14 6 15 5 16 4 17 3 18 2 19 1 20
REMARK H PARENT
REMARK INDEX MAP 8 1 6 2 4 3 3 4 5 5 7 6 9 7 18 8 2 9 1 10 12 11 15 12 16 13
REMARK INDEX MAP 19 14 17 15 13 16 10 17 11 18 14 19 20 20
ROOT
ATOM      1  C   UNL     1     -33.182  24.798   7.698  1.00  0.00     0.027 C 
ENDROOT
BRANCH   1   2
ATOM      2  C   UNL     1     -33.282  23.859   6.490  1.00  0.00     0.004 C 
BRANCH   2   3
ATOM      3  C   UNL     1     -31.970  23.133   6.176  1.00  0.00     0.000 C 
BRANCH   3   4
ATOM      4  C   UNL     1     -32.082  21.608   6.272  1.00  0.00     0.000 C 
BRANCH   4   5
ATOM      5  C   UNL     1     -32.885  20.985   5.128  1.00  0.00     0.000 C 
BRANCH   5   6
ATOM      6  C   UNL     1     -32.618  19.479   5.020  1.00  0.00     0.006 C 
BRANCH   6   7
ATOM      7  C   UNL     1     -33.006  18.726   6.292  1.00  0.00     0.053 C 
BRANCH   7   8
ATOM      8  C   UNL     1     -31.816  18.319   7.127  1.00  0.00     0.041 C 
ATOM      9  O   UNL     1     -31.704  18.456   8.336  1.00  0.00    -0.550 OA
ATOM     10  O   UNL     1     -30.871  17.738   6.344  1.00  0.00    -0.550 OA
ENDBRANCH   7   8
ENDBRANCH   6   7
ENDBRANCH   5   6
ENDBRANCH   4   5
ENDBRANCH   3   4
ENDBRANCH   2   3
ENDBRANCH   1   2
BRANCH   1  11
ATOM     11  C   UNL     1     -32.321  24.250   8.801  1.00  0.00    -0.031 C 
ATOM     12  C   UNL     1     -32.756  23.378   9.722  1.00  0.00    -0.027 C 
BRANCH  12  13
ATOM     13  C   UNL     1     -34.156  22.839   9.764  1.00  0.00     0.054 C 
BRANCH  13  14
ATOM     14  C   UNL     1     -34.193  21.375   9.431  1.00  0.00    -0.027 C 
ATOM     15  C   UNL     1     -34.977  20.853   8.474  1.00  0.00    -0.031 C 
BRANCH  15  16
ATOM     16  C   UNL     1     -35.939  21.587   7.579  1.00  0.00     0.027 C 
BRANCH  16  17
ATOM     17  C   UNL     1     -36.350  20.883   6.280  1.00  0.00     0.004 C 
BRANCH  17  18
ATOM     18  C   UNL     1     -37.874  20.809   6.151  1.00  0.00     0.000 C 
BRANCH  18  19
ATOM     19  C   UNL     1     -38.599  20.827   7.498  1.00  0.00    -0.003 C 
ATOM     20  C   UNL     1     -39.929  20.090   7.482  1.00  0.00     0.004 C 
ENDBRANCH  18  19
ENDBRANCH  17  18
ENDBRANCH  16  17
ENDBRANCH  15  16
ENDBRANCH  13  14
ENDBRANCH  12  13
ENDBRANCH   1  11
TORSDOF 14
ENDMDL
MODEL 9
REMARK VINA RESULT:    -6.312      2.496      5.266
REMARK INTER + INTRA:         -13.989
REMARK INTER:                 -11.499
REMARK INTRA:                  -2.490
REMARK UNBOUND:                -2.511
REMARK SMILES CCCCC/C=C\C/C=C\CCCCCCCC(=O)[O-]
REMARK SMILES IDX 11 1 12 2 13 3 14 4 15 5 16 6 17 7 18 8 19 9 20 10 10 11
REMARK SMILES IDX 9 12 8 13 7 14 6 15 5 16 4 17 3 18 2 19 1 20
REMARK H PARENT
REMARK INDEX MAP 8 1 6 2 4 3 3 4 5 5 7 6 9 7 18 8 2 9 1 10 12 11 15 12 16 13
REMARK INDEX MAP 19 14 17 15 13 16 10 17 11 18 14 19 20 20
ROOT
ATOM      1  C   UNL     1     -34.165  19.096   8.257  1.00  0.00     0.027 C 
ENDROOT
BRANCH   1   2
ATOM      2  C   UNL     1     -33.936  19.621   9.679  1.00  0.00     0.004 C 
BRANCH   2   3
ATOM      3  C   UNL     1     -34.823  20.819  10.034  1.00  0.00     0.000 C 
BRANCH   3   4
ATOM      4  C   UNL     1     -34.039  22.126  10.198  1.00  0.00     0.000 C 
BRANCH   4   5
ATOM      5  C   UNL     1     -33.640  22.766   8.866  1.00  0.00     0.000 C 
BRANCH   5   6
ATOM      6  C   UNL     1     -32.389  23.639   9.025  1.00  0.00     0.006 C 
BRANCH   6   7
ATOM      7  C   UNL     1     -32.415  24.866   8.114  1.00  0.00     0.053 C 
BRANCH   7   8
ATOM      8  C   UNL     1     -32.697  24.527   6.671  1.00  0.00     0.041 C 
ATOM      9  O   UNL     1     -31.929  23.976   5.897  1.00  0.00    -0.550 OA
ATOM     10  O   UNL     1     -33.961  24.898   6.342  1.00  0.00    -0.550 OA
ENDBRANCH   7   8
ENDBRANCH   6   7
ENDBRANCH   5   6
ENDBRANCH   4   5
ENDBRANCH   3   4
ENDBRANCH   2   3
ENDBRANCH   1   2
BRANCH   1  11
ATOM     11  C   UNL     1     -32.917  18.558   7.618  1.00  0.00    -0.031 C 
ATOM     12  C   UNL     1     -32.188  19.236   6.719  1.00  0.00    -0.027 C 
BRANCH  12  13
ATOM     13  C   UNL     1     -32.529  20.617   6.242  1.00  0.00     0.054 C 
BRANCH  13  14
ATOM     14  C   UNL     1     -32.990  20.607   4.812  1.00  0.00    -0.027 C 
ATOM     15  C   UNL     1     -34.281  20.661   4.450  1.00  0.00    -0.031 C 
BRANCH  15  16
ATOM     16  C   UNL     1     -35.482  20.736   5.355  1.00  0.00     0.027 C 
BRANCH  16  17
ATOM     17  C   UNL     1     -35.755  22.086   6.029  1.00  0.00     0.004 C 
BRANCH  17  18
ATOM     18  C   UNL     1     -36.833  21.954   7.110  1.00  0.00     0.000 C 
BRANCH  18  19
ATOM     19  C   UNL     1     -37.440  20.552   7.192  1.00  0.00    -0.003 C 
ATOM     20  C   UNL     1     -38.935  20.520   6.913  1.00  0.00     0.004 C 
ENDBRANCH  18  19
ENDBRANCH  17  18
ENDBRANCH  16  17
ENDBRANCH  15  16
ENDBRANCH  13  14
ENDBRANCH  12  13
ENDBRANCH   1  11
TORSDOF 14
ENDMDL
MODEL 10
REMARK VINA RESULT:    -6.312      1.892      4.174
REMARK INTER + INTRA:         -13.988
REMARK INTER:                 -11.406
REMARK INTRA:                  -2.582
REMARK UNBOUND:                -2.511
REMARK SMILES CCCCC/C=C\C/C=C\CCCCCCCC(=O)[O-]
REMARK SMILES IDX 11 1 12 2 13 3 14 4 15 5 16 6 17 7 18 8 19 9 20 10 10 11
REMARK SMILES IDX 9 12 8 13 7 14 6 15 5 16 4 17 3 18 2 19 1 20
REMARK H PARENT
REMARK INDEX MAP 8 1 6 2 4 3 3 4 5 5 7 6 9 7 18 8 2 9 1 10 12 11 15 12 16 13
REMARK INDEX MAP 19 14 17 15 13 16 10 17 11 18 14 19 20 20
ROOT
ATOM      1  C   UNL     1     -38.053  20.054   5.364  1.00  0.00     0.027 C 
ENDROOT
BRANCH   1   2
ATOM      2  C   UNL     1     -37.169  20.791   4.351  1.00  0.00     0.004 C 
BRANCH   2   3
ATOM      3  C   UNL     1     -35.695  20.377   4.420  1.00  0.00     0.000 C 
BRANCH   3   4
ATOM      4  C   UNL     1     -34.762  21.524   4.825  1.00  0.00     0.000 C 
BRANCH   4   5
ATOM      5  C   UNL     1     -33.597  21.073   5.709  1.00  0.00     0.000 C 
BRANCH   5   6
ATOM      6  C   UNL     1     -34.006  19.900   6.608  1.00  0.00     0.006 C 
BRANCH   6   7
ATOM      7  C   UNL     1     -32.966  19.602   7.687  1.00  0.00     0.053 C 
BRANCH   7   8
ATOM      8  C   UNL     1     -31.791  18.804   7.176  1.00  0.00     0.041 C 
ATOM      9  O   UNL     1     -31.801  18.038   6.225  1.00  0.00    -0.550 OA
ATOM     10  O   UNL     1     -30.684  19.079   7.911  1.00  0.00    -0.550 OA
ENDBRANCH   7   8
ENDBRANCH   6   7
ENDBRANCH   5   6
ENDBRANCH   4   5
ENDBRANCH   3   4
ENDBRANCH   2   3
ENDBRANCH   1   2
BRANCH   1  11
ATOM     11  C   UNL     1     -38.917  20.978   6.175  1.00  0.00    -0.031 C 
ATOM     12  C   UNL     1     -38.474  21.673   7.234  1.00  0.00    -0.027 C 
BRANCH  12  13
ATOM     13  C   UNL     1     -37.062  21.615   7.737  1.00  0.00     0.054 C 
BRANCH  13  14
ATOM     14  C   UNL     1     -36.373  22.943   7.599  1.00  0.00    -0.027 C 
ATOM     15  C   UNL     1     -35.358  23.336   8.385  1.00  0.00    -0.031 C 
BRANCH  15  16
ATOM     16  C   UNL     1     -34.729  22.570   9.517  1.00  0.00     0.027 C 
BRANCH  16  17
ATOM     17  C   UNL     1     -33.291  22.949   9.893  1.00  0.00     0.004 C 
BRANCH  17  18
ATOM     18  C   UNL     1     -32.431  23.160   8.644  1.00  0.00     0.000 C 
BRANCH  18  19
ATOM     19  C   UNL     1     -31.988  24.612   8.451  1.00  0.00    -0.003 C 
ATOM     20  C   UNL     1     -32.296  25.162   7.067  1.00  0.00     0.004 C 
ENDBRANCH  18  19
ENDBRANCH  17  18
ENDBRANCH  16  17
ENDBRANCH  15  16
ENDBRANCH  13  14
ENDBRANCH  12  13
ENDBRANCH   1  11
TORSDOF 14
ENDMDL
MODEL 11
REMARK VINA RESULT:    -6.299      1.048      2.981
REMARK INTER + INTRA:         -13.965
REMARK INTER:                 -11.273
REMARK INTRA:                  -2.692
REMARK UNBOUND:                -2.511
REMARK SMILES CCCCC/C=C\C/C=C\CCCCCCCC(=O)[O-]
REMARK SMILES IDX 11 1 12 2 13 3 14 4 15 5 16 6 17 7 18 8 19 9 20 10 10 11
REMARK SMILES IDX 9 12 8 13 7 14 6 15 5 16 4 17 3 18 2 19 1 20
REMARK H PARENT
REMARK INDEX MAP 8 1 6 2 4 3 3 4 5 5 7 6 9 7 18 8 2 9 1 10 12 11 15 12 16 13
REMARK INDEX MAP 19 14 17 15 13 16 10 17 11 18 14 19 20 20
ROOT
ATOM      1  C   UNL     1     -36.031  21.696   7.364  1.00  0.00     0.027 C 
ENDROOT
BRANCH   1   2
ATOM      2  C   UNL     1     -36.918  21.287   6.182  1.00  0.00     0.004 C 
BRANCH   2   3
ATOM      3  C   UNL     1     -36.203  21.373   4.830  1.00  0.00     0.000 C 
BRANCH   3   4
ATOM      4  C   UNL     1     -35.000  20.430   4.719  1.00  0.00     0.000 C 
BRANCH   4   5
ATOM      5  C   UNL     1     -33.658  21.128   4.957  1.00  0.00     0.000 C 
BRANCH   5   6
ATOM      6  C   UNL     1     -32.562  20.114   5.307  1.00  0.00     0.006 C 
BRANCH   6   7
ATOM      7  C   UNL     1     -33.000  19.135   6.395  1.00  0.00     0.053 C 
BRANCH   7   8
ATOM      8  C   UNL     1     -31.842  18.427   7.057  1.00  0.00     0.041 C 
ATOM      9  O   UNL     1     -31.012  17.726   6.498  1.00  0.00    -0.550 OA
ATOM     10  O   UNL     1     -31.825  18.703   8.386  1.00  0.00    -0.550 OA
ENDBRANCH   7   8
ENDBRANCH   6   7
ENDBRANCH   5   6
ENDBRANCH   4   5
ENDBRANCH   3   4
ENDBRANCH   2   3
ENDBRANCH   1   2
BRANCH   1  11
ATOM     11  C   UNL     1     -36.332  23.076   7.877  1.00  0.00    -0.031 C 
ATOM     12  C   UNL     1     -35.637  24.168   7.527  1.00  0.00    -0.027 C 
BRANCH  12  13
ATOM     13  C   UNL     1     -34.475  24.148   6.578  1.00  0.00     0.054 C 
BRANCH  13  14
ATOM     14  C   UNL     1     -33.314  24.939   7.110  1.00  0.00    -0.027 C 
ATOM     15  C   UNL     1     -32.217  24.378   7.642  1.00  0.00    -0.031 C 
BRANCH  15  16
ATOM     16  C   UNL     1     -31.932  22.910   7.812  1.00  0.00     0.027 C 
BRANCH  16  17
ATOM     17  C   UNL     1     -32.794  22.151   8.828  1.00  0.00     0.004 C 
BRANCH  17  18
ATOM     18  C   UNL     1     -33.082  23.014  10.060  1.00  0.00     0.000 C 
BRANCH  18  19
ATOM     19  C   UNL     1     -34.350  22.598  10.809  1.00  0.00    -0.003 C 
ATOM     20  C   UNL     1     -34.596  21.097  10.799  1.00  0.00     0.004 C 
ENDBRANCH  18  19
ENDBRANCH  17  18
ENDBRANCH  16  17
ENDBRANCH  15  16
ENDBRANCH  13  14
ENDBRANCH  12  13
ENDBRANCH   1  11
TORSDOF 14
ENDMDL
MODEL 12
REMARK VINA RESULT:    -6.272      1.567      3.681
REMARK INTER + INTRA:         -13.916
REMARK INTER:                 -11.619
REMARK INTRA:                  -2.297
REMARK UNBOUND:                -2.511
REMARK SMILES CCCCC/C=C\C/C=C\CCCCCCCC(=O)[O-]
REMARK SMILES IDX 11 1 12 2 13 3 14 4 15 5 16 6 17 7 18 8 19 9 20 10 10 11
REMARK SMILES IDX 9 12 8 13 7 14 6 15 5 16 4 17 3 18 2 19 1 20
REMARK H PARENT
REMARK INDEX MAP 8 1 6 2 4 3 3 4 5 5 7 6 9 7 18 8 2 9 1 10 12 11 15 12 16 13
REMARK INDEX MAP 19 14 17 15 13 16 10 17 11 18 14 19 20 20
ROOT
ATOM      1  C   UNL     1     -32.538  23.492   9.432  1.00  0.00     0.027 C 
ENDROOT
BRANCH   1   2
ATOM      2  C   UNL     1     -34.006  23.072   9.570  1.00  0.00     0.004 C 
BRANCH   2   3
ATOM      3  C   UNL     1     -34.308  22.348  10.886  1.00  0.00     0.000 C 
BRANCH   3   4
ATOM      4  C   UNL     1     -34.714  20.883  10.692  1.00  0.00     0.000 C 
BRANCH   4   5
ATOM      5  C   UNL     1     -34.624  20.416   9.237  1.00  0.00     0.000 C 
BRANCH   5   6
ATOM      6  C   UNL     1     -33.638  19.250   9.091  1.00  0.00     0.006 C 
BRANCH   6   7
ATOM      7  C   UNL     1     -33.559  18.730   7.657  1.00  0.00     0.053 C 
BRANCH   7   8
ATOM      8  C   UNL     1     -32.159  18.348   7.241  1.00  0.00     0.041 C 
ATOM      9  O   UNL     1     -31.187  18.264   7.976  1.00  0.00    -0.550 OA
ATOM     10  O   UNL     1     -32.125  18.071   5.912  1.00  0.00    -0.550 OA
ENDBRANCH   7   8
ENDBRANCH   6   7
ENDBRANCH   5   6
ENDBRANCH   4   5
ENDBRANCH   3   4
ENDBRANCH   2   3
ENDBRANCH   1   2
BRANCH   1  11
ATOM     11  C   UNL     1     -32.236  24.159   8.120  1.00  0.00    -0.031 C 
ATOM     12  C   UNL     1     -32.043  23.492   6.972  1.00  0.00    -0.027 C 
BRANCH  12  13
ATOM     13  C   UNL     1     -32.106  21.998   6.856  1.00  0.00     0.054 C 
BRANCH  13  14
ATOM     14  C   UNL     1     -32.576  21.570   5.495  1.00  0.00    -0.027 C 
ATOM     15  C   UNL     1     -33.870  21.496   5.147  1.00  0.00    -0.031 C 
BRANCH  15  16
ATOM     16  C   UNL     1     -35.066  21.809   6.006  1.00  0.00     0.027 C 
BRANCH  16  17
ATOM     17  C   UNL     1     -36.231  20.813   5.956  1.00  0.00     0.004 C 
BRANCH  17  18
ATOM     18  C   UNL     1     -37.320  21.186   6.967  1.00  0.00     0.000 C 
BRANCH  18  19
ATOM     19  C   UNL     1     -38.589  20.343   6.831  1.00  0.00    -0.003 C 
ATOM     20  C   UNL     1     -39.658  20.683   7.858  1.00  0.00     0.004 C 
ENDBRANCH  18  19
ENDBRANCH  17  18
ENDBRANCH  16  17
ENDBRANCH  15  16
ENDBRANCH  13  14
ENDBRANCH  12  13
ENDBRANCH   1  11
TORSDOF 14
ENDMDL
MODEL 13
REMARK VINA RESULT:    -6.262      2.806      4.775
REMARK INTER + INTRA:         -13.898
REMARK INTER:                 -11.287
REMARK INTRA:                  -2.611
REMARK UNBOUND:                -2.511
REMARK SMILES CCCCC/C=C\C/C=C\CCCCCCCC(=O)[O-]
REMARK SMILES IDX 11 1 12 2 13 3 14 4 15 5 16 6 17 7 18 8 19 9 20 10 10 11
REMARK SMILES IDX 9 12 8 13 7 14 6 15 5 16 4 17 3 18 2 19 1 20
REMARK H PARENT
REMARK INDEX MAP 8 1 6 2 4 3 3 4 5 5 7 6 9 7 18 8 2 9 1 10 12 11 15 12 16 13
REMARK INDEX MAP 19 14 17 15 13 16 10 17 11 18 14 19 20 20
ROOT
ATOM      1  C   UNL     1     -32.600  22.908   9.360  1.00  0.00     0.027 C 
ENDROOT
BRANCH   1   2
ATOM      2  C   UNL     1     -33.967  22.920  10.054  1.00  0.00     0.004 C 
BRANCH   2   3
ATOM      3  C   UNL     1     -35.084  22.301   9.206  1.00  0.00     0.000 C 
BRANCH   3   4
ATOM      4  C   UNL     1     -35.752  23.304   8.259  1.00  0.00     0.000 C 
BRANCH   4   5
ATOM      5  C   UNL     1     -36.857  22.683   7.401  1.00  0.00     0.000 C 
BRANCH   5   6
ATOM      6  C   UNL     1     -36.838  21.153   7.497  1.00  0.00     0.006 C 
BRANCH   6   7
ATOM      7  C   UNL     1     -38.199  20.532   7.186  1.00  0.00     0.053 C 
BRANCH   7   8
ATOM      8  C   UNL     1     -38.497  20.465   5.707  1.00  0.00     0.041 C 
ATOM      9  O   UNL     1     -39.582  20.661   5.181  1.00  0.00    -0.550 OA
ATOM     10  O   UNL     1     -37.364  20.179   5.015  1.00  0.00    -0.550 OA
ENDBRANCH   7   8
ENDBRANCH   6   7
ENDBRANCH   5   6
ENDBRANCH   4   5
ENDBRANCH   3   4
ENDBRANCH   2   3
ENDBRANCH   1   2
BRANCH   1  11
ATOM     11  C   UNL     1     -32.094  24.284   9.032  1.00  0.00    -0.031 C 
ATOM     12  C   UNL     1     -32.169  24.834   7.811  1.00  0.00    -0.027 C 
BRANCH  12  13
ATOM     13  C   UNL     1     -32.771  24.144   6.622  1.00  0.00     0.054 C 
BRANCH  13  14
ATOM     14  C   UNL     1     -31.835  23.119   6.047  1.00  0.00    -0.027 C 
ATOM     15  C   UNL     1     -32.207  21.868   5.733  1.00  0.00    -0.031 C 
BRANCH  15  16
ATOM     16  C   UNL     1     -33.574  21.257   5.885  1.00  0.00     0.027 C 
BRANCH  16  17
ATOM     17  C   UNL     1     -33.631  19.750   6.160  1.00  0.00     0.004 C 
BRANCH  17  18
ATOM     18  C   UNL     1     -33.498  19.457   7.657  1.00  0.00     0.000 C 
BRANCH  18  19
ATOM     19  C   UNL     1     -32.115  18.934   8.053  1.00  0.00    -0.003 C 
ATOM     20  C   UNL     1     -31.389  18.222   6.922  1.00  0.00     0.004 C 
ENDBRANCH  18  19
ENDBRANCH  17  18
ENDBRANCH  16  17
ENDBRANCH  15  16
ENDBRANCH  13  14
ENDBRANCH  12  13
ENDBRANCH   1  11
TORSDOF 14
ENDMDL
MODEL 14
REMARK VINA RESULT:    -6.238      2.083      3.663
REMARK INTER + INTRA:         -13.854
REMARK INTER:                 -10.982
REMARK INTRA:                  -2.873
REMARK UNBOUND:                -2.511
REMARK SMILES CCCCC/C=C\C/C=C\CCCCCCCC(=O)[O-]
REMARK SMILES IDX 11 1 12 2 13 3 14 4 15 5 16 6 17 7 18 8 19 9 20 10 10 11
REMARK SMILES IDX 9 12 8 13 7 14 6 15 5 16 4 17 3 18 2 19 1 20
REMARK H PARENT
REMARK INDEX MAP 8 1 6 2 4 3 3 4 5 5 7 6 9 7 18 8 2 9 1 10 12 11 15 12 16 13
REMARK INDEX MAP 19 14 17 15 13 16 10 17 11 18 14 19 20 20
ROOT
ATOM      1  C   UNL     1     -33.882  22.899  10.401  1.00  0.00     0.027 C 
ENDROOT
BRANCH   1   2
ATOM      2  C   UNL     1     -34.407  21.466  10.543  1.00  0.00     0.004 C 
BRANCH   2   3
ATOM      3  C   UNL     1     -34.494  20.718   9.208  1.00  0.00     0.000 C 
BRANCH   3   4
ATOM      4  C   UNL     1     -33.745  19.381   9.213  1.00  0.00     0.000 C 
BRANCH   4   5
ATOM      5  C   UNL     1     -32.703  19.266   8.097  1.00  0.00     0.000 C 
BRANCH   5   6
ATOM      6  C   UNL     1     -32.937  20.323   7.012  1.00  0.00     0.006 C 
BRANCH   6   7
ATOM      7  C   UNL     1     -33.778  19.793   5.852  1.00  0.00     0.053 C 
BRANCH   7   8
ATOM      8  C   UNL     1     -33.258  20.217   4.499  1.00  0.00     0.041 C 
ATOM      9  O   UNL     1     -33.599  21.212   3.876  1.00  0.00    -0.550 OA
ATOM     10  O   UNL     1     -32.316  19.342   4.066  1.00  0.00    -0.550 OA
ENDBRANCH   7   8
ENDBRANCH   6   7
ENDBRANCH   5   6
ENDBRANCH   4   5
ENDBRANCH   3   4
ENDBRANCH   2   3
ENDBRANCH   1   2
BRANCH   1  11
ATOM     11  C   UNL     1     -32.601  22.983   9.620  1.00  0.00    -0.031 C 
ATOM     12  C   UNL     1     -32.462  23.698   8.493  1.00  0.00    -0.027 C 
BRANCH  12  13
ATOM     13  C   UNL     1     -33.568  24.502   7.875  1.00  0.00     0.054 C 
BRANCH  13  14
ATOM     14  C   UNL     1     -34.089  23.852   6.625  1.00  0.00    -0.027 C 
ATOM     15  C   UNL     1     -35.266  23.209   6.560  1.00  0.00    -0.031 C 
BRANCH  15  16
ATOM     16  C   UNL     1     -36.261  23.011   7.671  1.00  0.00     0.027 C 
BRANCH  16  17
ATOM     17  C   UNL     1     -37.566  22.291   7.309  1.00  0.00     0.004 C 
BRANCH  17  18
ATOM     18  C   UNL     1     -37.306  20.824   6.952  1.00  0.00     0.000 C 
BRANCH  18  19
ATOM     19  C   UNL     1     -38.011  20.379   5.669  1.00  0.00    -0.003 C 
ATOM     20  C   UNL     1     -37.153  20.529   4.422  1.00  0.00     0.004 C 
ENDBRANCH  18  19
ENDBRANCH  17  18
ENDBRANCH  16  17
ENDBRANCH  15  16
ENDBRANCH  13  14
ENDBRANCH  12  13
ENDBRANCH   1  11
TORSDOF 14
ENDMDL
MODEL 15
REMARK VINA RESULT:    -6.219      2.197      3.182
REMARK INTER + INTRA:         -13.820
REMARK INTER:                 -12.210
REMARK INTRA:                  -1.610
REMARK UNBOUND:                -2.511
REMARK SMILES CCCCC/C=C\C/C=C\CCCCCCCC(=O)[O-]
REMARK SMILES IDX 11 1 12 2 13 3 14 4 15 5 16 6 17 7 18 8 19 9 20 10 10 11
REMARK SMILES IDX 9 12 8 13 7 14 6 15 5 16 4 17 3 18 2 19 1 20
REMARK H PARENT
REMARK INDEX MAP 8 1 6 2 4 3 3 4 5 5 7 6 9 7 18 8 2 9 1 10 12 11 15 12 16 13
REMARK INDEX MAP 19 14 17 15 13 16 10 17 11 18 14 19 20 20
ROOT
ATOM      1  C   UNL     1     -32.158  23.372   8.909  1.00  0.00     0.027 C 
ENDROOT
BRANCH   1   2
ATOM      2  C   UNL     1     -31.758  22.370   7.820  1.00  0.00     0.004 C 
BRANCH   2   3
ATOM      3  C   UNL     1     -32.388  20.986   8.007  1.00  0.00     0.000 C 
BRANCH   3   4
ATOM      4  C   UNL     1     -31.448  19.836   7.631  1.00  0.00     0.000 C 
BRANCH   4   5
ATOM      5  C   UNL     1     -32.183  18.595   7.117  1.00  0.00     0.000 C 
BRANCH   5   6
ATOM      6  C   UNL     1     -33.206  18.966   6.037  1.00  0.00     0.006 C 
BRANCH   6   7
ATOM      7  C   UNL     1     -32.543  19.448   4.747  1.00  0.00     0.053 C 
BRANCH   7   8
ATOM      8  C   UNL     1     -33.106  20.756   4.244  1.00  0.00     0.041 C 
ATOM      9  O   UNL     1     -34.114  20.893   3.569  1.00  0.00    -0.550 OA
ATOM     10  O   UNL     1     -32.340  21.790   4.675  1.00  0.00    -0.550 OA
ENDBRANCH   7   8
ENDBRANCH   6   7
ENDBRANCH   5   6
ENDBRANCH   4   5
ENDBRANCH   3   4
ENDBRANCH   2   3
ENDBRANCH   1   2
BRANCH   1  11
ATOM     11  C   UNL     1     -32.129  24.798   8.438  1.00  0.00    -0.031 C 
ATOM     12  C   UNL     1     -32.911  25.274   7.457  1.00  0.00    -0.027 C 
BRANCH  12  13
ATOM     13  C   UNL     1     -33.911  24.442   6.711  1.00  0.00     0.054 C 
BRANCH  13  14
ATOM     14  C   UNL     1     -35.143  24.191   7.533  1.00  0.00    -0.027 C 
ATOM     15  C   UNL     1     -35.868  23.064   7.456  1.00  0.00    -0.031 C 
BRANCH  15  16
ATOM     16  C   UNL     1     -35.615  21.873   6.571  1.00  0.00     0.027 C 
BRANCH  16  17
ATOM     17  C   UNL     1     -36.845  21.082   6.108  1.00  0.00     0.004 C 
BRANCH  17  18
ATOM     18  C   UNL     1     -37.828  20.864   7.262  1.00  0.00     0.000 C 
BRANCH  18  19
ATOM     19  C   UNL     1     -39.264  21.268   6.920  1.00  0.00    -0.003 C 
ATOM     20  C   UNL     1     -39.650  22.642   7.445  1.00  0.00     0.004 C 
ENDBRANCH  18  19
ENDBRANCH  17  18
ENDBRANCH  16  17
ENDBRANCH  15  16
ENDBRANCH  13  14
ENDBRANCH  12  13
ENDBRANCH   1  11
TORSDOF 14
ENDMDL
MODEL 16
REMARK VINA RESULT:    -6.168      3.352      4.916
REMARK INTER + INTRA:         -13.727
REMARK INTER:                 -11.047
REMARK INTRA:                  -2.680
REMARK UNBOUND:                -2.511
REMARK SMILES CCCCC/C=C\C/C=C\CCCCCCCC(=O)[O-]
REMARK SMILES IDX 11 1 12 2 13 3 14 4 15 5 16 6 17 7 18 8 19 9 20 10 10 11
REMARK SMILES IDX 9 12 8 13 7 14 6 15 5 16 4 17 3 18 2 19 1 20
REMARK H PARENT
REMARK INDEX MAP 8 1 6 2 4 3 3 4 5 5 7 6 9 7 18 8 2 9 1 10 12 11 15 12 16 13
REMARK INDEX MAP 19 14 17 15 13 16 10 17 11 18 14 19 20 20
ROOT
ATOM      1  C   UNL     1     -33.535  23.926   7.779  1.00  0.00     0.027 C 
ENDROOT
BRANCH   1   2
ATOM      2  C   UNL     1     -34.970  24.078   7.261  1.00  0.00     0.004 C 
BRANCH   2   3
ATOM      3  C   UNL     1     -35.702  22.741   7.103  1.00  0.00     0.000 C 
BRANCH   3   4
ATOM      4  C   UNL     1     -35.491  22.093   5.730  1.00  0.00     0.000 C 
BRANCH   4   5
ATOM      5  C   UNL     1     -36.303  20.811   5.533  1.00  0.00     0.000 C 
BRANCH   5   6
ATOM      6  C   UNL     1     -37.338  20.635   6.651  1.00  0.00     0.006 C 
BRANCH   6   7
ATOM      7  C   UNL     1     -38.766  20.539   6.115  1.00  0.00     0.053 C 
BRANCH   7   8
ATOM      8  C   UNL     1     -39.784  21.195   7.017  1.00  0.00     0.041 C 
ATOM      9  O   UNL     1     -39.939  22.396   7.173  1.00  0.00    -0.550 OA
ATOM     10  O   UNL     1     -40.545  20.250   7.626  1.00  0.00    -0.550 OA
ENDBRANCH   7   8
ENDBRANCH   6   7
ENDBRANCH   5   6
ENDBRANCH   4   5
ENDBRANCH   3   4
ENDBRANCH   2   3
ENDBRANCH   1   2
BRANCH   1  11
ATOM     11  C   UNL     1     -32.536  23.676   6.684  1.00  0.00    -0.031 C 
ATOM     12  C   UNL     1     -31.772  22.576   6.610  1.00  0.00    -0.027 C 
BRANCH  12  13
ATOM     13  C   UNL     1     -31.821  21.459   7.610  1.00  0.00     0.054 C 
BRANCH  13  14
ATOM     14  C   UNL     1     -32.286  20.176   6.981  1.00  0.00    -0.027 C 
ATOM     15  C   UNL     1     -33.376  19.506   7.386  1.00  0.00    -0.031 C 
BRANCH  15  16
ATOM     16  C   UNL     1     -34.316  19.877   8.501  1.00  0.00     0.027 C 
BRANCH  16  17
ATOM     17  C   UNL     1     -34.011  19.291   9.885  1.00  0.00     0.004 C 
BRANCH  17  18
ATOM     18  C   UNL     1     -34.445  20.251  10.998  1.00  0.00     0.000 C 
BRANCH  18  19
ATOM     19  C   UNL     1     -34.635  21.691  10.516  1.00  0.00    -0.003 C 
ATOM     20  C   UNL     1     -33.803  22.704  11.288  1.00  0.00     0.004 C 
ENDBRANCH  18  19
ENDBRANCH  17  18
ENDBRANCH  16  17
ENDBRANCH  15  16
ENDBRANCH  13  14
ENDBRANCH  12  13
ENDBRANCH   1  11
TORSDOF 14
ENDMDL
MODEL 17
REMARK VINA RESULT:    -6.166      3.252      5.262
REMARK INTER + INTRA:         -13.722
REMARK INTER:                 -11.010
REMARK INTRA:                  -2.713
REMARK UNBOUND:                -2.511
REMARK SMILES CCCCC/C=C\C/C=C\CCCCCCCC(=O)[O-]
REMARK SMILES IDX 11 1 12 2 13 3 14 4 15 5 16 6 17 7 18 8 19 9 20 10 10 11
REMARK SMILES IDX 9 12 8 13 7 14 6 15 5 16 4 17 3 18 2 19 1 20
REMARK H PARENT
REMARK INDEX MAP 8 1 6 2 4 3 3 4 5 5 7 6 9 7 18 8 2 9 1 10 12 11 15 12 16 13
REMARK INDEX MAP 19 14 17 15 13 16 10 17 11 18 14 19 20 20
ROOT
ATOM      1  C   UNL     1     -34.316  20.822   9.443  1.00  0.00     0.027 C 
ENDROOT
BRANCH   1   2
ATOM      2  C   UNL     1     -35.445  20.799   8.407  1.00  0.00     0.004 C 
BRANCH   2   3
ATOM      3  C   UNL     1     -35.796  22.187   7.861  1.00  0.00     0.000 C 
BRANCH   3   4
ATOM      4  C   UNL     1     -36.262  22.165   6.402  1.00  0.00     0.000 C 
BRANCH   4   5
ATOM      5  C   UNL     1     -36.353  20.754   5.816  1.00  0.00     0.000 C 
BRANCH   5   6
ATOM      6  C   UNL     1     -37.811  20.361   5.543  1.00  0.00     0.006 C 
BRANCH   6   7
ATOM      7  C   UNL     1     -38.511  19.818   6.788  1.00  0.00     0.053 C 
BRANCH   7   8
ATOM      8  C   UNL     1     -39.823  20.505   7.078  1.00  0.00     0.041 C 
ATOM      9  O   UNL     1     -40.842  19.969   7.486  1.00  0.00    -0.550 OA
ATOM     10  O   UNL     1     -39.714  21.838   6.847  1.00  0.00    -0.550 OA
ENDBRANCH   7   8
ENDBRANCH   6   7
ENDBRANCH   5   6
ENDBRANCH   4   5
ENDBRANCH   3   4
ENDBRANCH   2   3
ENDBRANCH   1   2
BRANCH   1  11
ATOM     11  C   UNL     1     -34.373  22.018  10.351  1.00  0.00    -0.031 C 
ATOM     12  C   UNL     1     -33.576  23.090  10.223  1.00  0.00    -0.027 C 
BRANCH  12  13
ATOM     13  C   UNL     1     -32.530  23.226   9.156  1.00  0.00     0.054 C 
BRANCH  13  14
ATOM     14  C   UNL     1     -32.892  24.294   8.163  1.00  0.00    -0.027 C 
ATOM     15  C   UNL     1     -32.597  24.220   6.855  1.00  0.00    -0.031 C 
BRANCH  15  16
ATOM     16  C   UNL     1     -31.875  23.108   6.143  1.00  0.00     0.027 C 
BRANCH  16  17
ATOM     17  C   UNL     1     -32.715  21.894   5.726  1.00  0.00     0.004 C 
BRANCH  17  18
ATOM     18  C   UNL     1     -32.243  20.625   6.442  1.00  0.00     0.000 C 
BRANCH  18  19
ATOM     19  C   UNL     1     -32.919  19.352   5.927  1.00  0.00    -0.003 C 
ATOM     20  C   UNL     1     -33.054  18.267   6.984  1.00  0.00     0.004 C 
ENDBRANCH  18  19
ENDBRANCH  17  18
ENDBRANCH  16  17
ENDBRANCH  15  16
ENDBRANCH  13  14
ENDBRANCH  12  13
ENDBRANCH   1  11
TORSDOF 14
ENDMDL
MODEL 18
REMARK VINA RESULT:    -6.148      3.374      5.419
REMARK INTER + INTRA:         -13.690
REMARK INTER:                 -11.513
REMARK INTRA:                  -2.177
REMARK UNBOUND:                -2.511
REMARK SMILES CCCCC/C=C\C/C=C\CCCCCCCC(=O)[O-]
REMARK SMILES IDX 11 1 12 2 13 3 14 4 15 5 16 6 17 7 18 8 19 9 20 10 10 11
REMARK SMILES IDX 9 12 8 13 7 14 6 15 5 16 4 17 3 18 2 19 1 20
REMARK H PARENT
REMARK INDEX MAP 8 1 6 2 4 3 3 4 5 5 7 6 9 7 18 8 2 9 1 10 12 11 15 12 16 13
REMARK INDEX MAP 19 14 17 15 13 16 10 17 11 18 14 19 20 20
ROOT
ATOM      1  C   UNL     1     -34.712  20.495   7.025  1.00  0.00     0.027 C 
ENDROOT
BRANCH   1   2
ATOM      2  C   UNL     1     -33.878  20.241   5.764  1.00  0.00     0.004 C 
BRANCH   2   3
ATOM      3  C   UNL     1     -34.541  20.759   4.483  1.00  0.00     0.000 C 
BRANCH   3   4
ATOM      4  C   UNL     1     -35.957  21.299   4.710  1.00  0.00     0.000 C 
BRANCH   4   5
ATOM      5  C   UNL     1     -37.049  20.406   4.114  1.00  0.00     0.000 C 
BRANCH   5   6
ATOM      6  C   UNL     1     -38.397  20.647   4.803  1.00  0.00     0.006 C 
BRANCH   6   7
ATOM      7  C   UNL     1     -38.315  20.479   6.320  1.00  0.00     0.053 C 
BRANCH   7   8
ATOM      8  C   UNL     1     -39.594  20.853   7.029  1.00  0.00     0.041 C 
ATOM      9  O   UNL     1     -40.319  20.094   7.655  1.00  0.00    -0.550 OA
ATOM     10  O   UNL     1     -39.827  22.184   6.901  1.00  0.00    -0.550 OA
ENDBRANCH   7   8
ENDBRANCH   6   7
ENDBRANCH   5   6
ENDBRANCH   4   5
ENDBRANCH   3   4
ENDBRANCH   2   3
ENDBRANCH   1   2
BRANCH   1  11
ATOM     11  C   UNL     1     -34.179  19.788   8.238  1.00  0.00    -0.031 C 
ATOM     12  C   UNL     1     -34.329  20.242   9.491  1.00  0.00    -0.027 C 
BRANCH  12  13
ATOM     13  C   UNL     1     -35.049  21.512   9.836  1.00  0.00     0.054 C 
BRANCH  13  14
ATOM     14  C   UNL     1     -34.249  22.359  10.786  1.00  0.00    -0.027 C 
ATOM     15  C   UNL     1     -33.154  23.044  10.424  1.00  0.00    -0.031 C 
BRANCH  15  16
ATOM     16  C   UNL     1     -32.524  23.106   9.058  1.00  0.00     0.027 C 
BRANCH  16  17
ATOM     17  C   UNL     1     -32.061  24.485   8.572  1.00  0.00     0.004 C 
BRANCH  17  18
ATOM     18  C   UNL     1     -33.099  25.118   7.641  1.00  0.00     0.000 C 
BRANCH  18  19
ATOM     19  C   UNL     1     -33.941  24.089   6.882  1.00  0.00    -0.003 C 
ATOM     20  C   UNL     1     -35.409  24.093   7.280  1.00  0.00     0.004 C 
ENDBRANCH  18  19
ENDBRANCH  17  18
ENDBRANCH  16  17
ENDBRANCH  15  16
ENDBRANCH  13  14
ENDBRANCH  12  13
ENDBRANCH   1  11
TORSDOF 14
ENDMDL
MODEL 19
REMARK VINA RESULT:    -6.085      4.284      5.439
REMARK INTER + INTRA:         -13.576
REMARK INTER:                 -11.232
REMARK INTRA:                  -2.344
REMARK UNBOUND:                -2.511
REMARK SMILES CCCCC/C=C\C/C=C\CCCCCCCC(=O)[O-]
REMARK SMILES IDX 11 1 12 2 13 3 14 4 15 5 16 6 17 7 18 8 19 9 20 10 10 11
REMARK SMILES IDX 9 12 8 13 7 14 6 15 5 16 4 17 3 18 2 19 1 20
REMARK H PARENT
REMARK INDEX MAP 8 1 6 2 4 3 3 4 5 5 7 6 9 7 18 8 2 9 1 10 12 11 15 12 16 13
REMARK INDEX MAP 19 14 17 15 13 16 10 17 11 18 14 19 20 20
ROOT
ATOM      1  C   UNL     1     -33.135  20.518   5.433  1.00  0.00     0.027 C 
ENDROOT
BRANCH   1   2
ATOM      2  C   UNL     1     -34.640  20.426   5.707  1.00  0.00     0.004 C 
BRANCH   2   3
ATOM      3  C   UNL     1     -35.494  21.137   4.652  1.00  0.00     0.000 C 
BRANCH   3   4
ATOM      4  C   UNL     1     -36.812  20.416   4.352  1.00  0.00     0.000 C 
BRANCH   4   5
ATOM      5  C   UNL     1     -37.809  20.466   5.512  1.00  0.00     0.000 C 
BRANCH   5   6
ATOM      6  C   UNL     1     -39.254  20.405   5.002  1.00  0.00     0.006 C 
BRANCH   6   7
ATOM      7  C   UNL     1     -39.363  20.744   3.517  1.00  0.00     0.053 C 
BRANCH   7   8
ATOM      8  C   UNL     1     -40.421  19.939   2.800  1.00  0.00     0.041 C 
ATOM      9  O   UNL     1     -40.679  19.990   1.608  1.00  0.00    -0.550 OA
ATOM     10  O   UNL     1     -41.044  19.106   3.672  1.00  0.00    -0.550 OA
ENDBRANCH   7   8
ENDBRANCH   6   7
ENDBRANCH   5   6
ENDBRANCH   4   5
ENDBRANCH   3   4
ENDBRANCH   2   3
ENDBRANCH   1   2
BRANCH   1  11
ATOM     11  C   UNL     1     -32.326  20.794   6.668  1.00  0.00    -0.031 C 
ATOM     12  C   UNL     1     -31.877  22.012   7.007  1.00  0.00    -0.027 C 
BRANCH  12  13
ATOM     13  C   UNL     1     -32.129  23.249   6.196  1.00  0.00     0.054 C 
BRANCH  13  14
ATOM     14  C   UNL     1     -32.505  24.413   7.068  1.00  0.00    -0.027 C 
ATOM     15  C   UNL     1     -33.759  24.653   7.484  1.00  0.00    -0.031 C 
BRANCH  15  16
ATOM     16  C   UNL     1     -34.993  23.847   7.178  1.00  0.00     0.027 C 
BRANCH  16  17
ATOM     17  C   UNL     1     -35.470  22.874   8.263  1.00  0.00     0.004 C 
BRANCH  17  18
ATOM     18  C   UNL     1     -34.686  23.071   9.564  1.00  0.00     0.000 C 
BRANCH  18  19
ATOM     19  C   UNL     1     -34.408  21.763  10.308  1.00  0.00    -0.003 C 
ATOM     20  C   UNL     1     -34.674  20.520   9.472  1.00  0.00     0.004 C 
ENDBRANCH  18  19
ENDBRANCH  17  18
ENDBRANCH  16  17
ENDBRANCH  15  16
ENDBRANCH  13  14
ENDBRANCH  12  13
ENDBRANCH   1  11
TORSDOF 14
ENDMDL
MODEL 20
REMARK VINA RESULT:    -6.053      2.348      4.981
REMARK INTER + INTRA:         -13.517
REMARK INTER:                 -10.691
REMARK INTRA:                  -2.826
REMARK UNBOUND:                -2.511
REMARK SMILES CCCCC/C=C\C/C=C\CCCCCCCC(=O)[O-]
REMARK SMILES IDX 11 1 12 2 13 3 14 4 15 5 16 6 17 7 18 8 19 9 20 10 10 11
REMARK SMILES IDX 9 12 8 13 7 14 6 15 5 16 4 17 3 18 2 19 1 20
REMARK H PARENT
REMARK INDEX MAP 8 1 6 2 4 3 3 4 5 5 7 6 9 7 18 8 2 9 1 10 12 11 15 12 16 13
REMARK INDEX MAP 19 14 17 15 13 16 10 17 11 18 14 19 20 20
ROOT
ATOM      1  C   UNL     1     -35.998  20.367   5.778  1.00  0.00     0.027 C 
ENDROOT
BRANCH   1   2
ATOM      2  C   UNL     1     -37.461  20.811   5.883  1.00  0.00     0.004 C 
BRANCH   2   3
ATOM      3  C   UNL     1     -37.708  21.822   7.008  1.00  0.00     0.000 C 
BRANCH   3   4
ATOM      4  C   UNL     1     -36.454  22.129   7.833  1.00  0.00     0.000 C 
BRANCH   4   5
ATOM      5  C   UNL     1     -35.958  23.568   7.669  1.00  0.00     0.000 C 
BRANCH   5   6
ATOM      6  C   UNL     1     -34.550  23.602   7.063  1.00  0.00     0.006 C 
BRANCH   6   7
ATOM      7  C   UNL     1     -33.683  24.708   7.663  1.00  0.00     0.053 C 
BRANCH   7   8
ATOM      8  C   UNL     1     -32.204  24.469   7.477  1.00  0.00     0.041 C 
ATOM      9  O   UNL     1     -31.391  24.261   8.364  1.00  0.00    -0.550 OA
ATOM     10  O   UNL     1     -31.890  24.488   6.156  1.00  0.00    -0.550 OA
ENDBRANCH   7   8
ENDBRANCH   6   7
ENDBRANCH   5   6
ENDBRANCH   4   5
ENDBRANCH   3   4
ENDBRANCH   2   3
ENDBRANCH   1   2
BRANCH   1  11
ATOM     11  C   UNL     1     -35.286  20.957   4.594  1.00  0.00    -0.031 C 
ATOM     12  C   UNL     1     -33.974  20.800   4.360  1.00  0.00    -0.027 C 
BRANCH  12  13
ATOM     13  C   UNL     1     -33.057  20.016   5.251  1.00  0.00     0.054 C 
BRANCH  13  14
ATOM     14  C   UNL     1     -32.438  20.887   6.307  1.00  0.00    -0.027 C 
ATOM     15  C   UNL     1     -32.390  20.553   7.607  1.00  0.00    -0.031 C 
BRANCH  15  16
ATOM     16  C   UNL     1     -32.922  19.300   8.249  1.00  0.00     0.027 C 
BRANCH  16  17
ATOM     17  C   UNL     1     -34.290  19.402   8.935  1.00  0.00     0.004 C 
BRANCH  17  18
ATOM     18  C   UNL     1     -34.136  19.607  10.445  1.00  0.00     0.000 C 
BRANCH  18  19
ATOM     19  C   UNL     1     -34.790  20.894  10.951  1.00  0.00    -0.003 C 
ATOM     20  C   UNL     1     -34.041  22.155  10.549  1.00  0.00     0.004 C 
ENDBRANCH  18  19
ENDBRANCH  17  18
ENDBRANCH  16  17
ENDBRANCH  15  16
ENDBRANCH  13  14
ENDBRANCH  12  13
ENDBRANCH   1  11
TORSDOF 14
ENDMDL
