MODEL 1
REMARK VINA RESULT:    -6.360      0.000      0.000
REMARK INTER + INTRA:         -14.499
REMARK INTER:                 -11.565
REMARK INTRA:                  -2.934
REMARK UNBOUND:                -2.934
REMARK SMILES CCCCC/C=C\C/C=C\CCCCCCCC(=O)[O-]
REMARK SMILES IDX 11 1 12 2 13 3 14 4 15 5 16 6 17 7 18 8 19 9 20 10 10 11
REMARK SMILES IDX 9 12 8 13 7 14 6 15 5 16 4 17 3 18 2 19 1 20
REMARK H PARENT
REMARK INDEX MAP 8 1 6 2 4 3 3 4 5 5 7 6 9 7 18 8 2 9 1 10 12 11 15 12 16 13
REMARK INDEX MAP 19 14 17 15 13 16 10 17 11 18 14 19 20 20
ROOT
ATOM      1  C   UNL     1     -31.919  22.899   8.090  1.00  0.00     0.027 C 
ENDROOT
BRANCH   1   2
ATOM      2  C   UNL     1     -31.425  21.943   6.999  1.00  0.00     0.004 C 
BRANCH   2   3
ATOM      3  C   UNL     1     -32.117  22.156   5.648  1.00  0.00     0.000 C 
BRANCH   3   4
ATOM      4  C   UNL     1     -33.132  21.060   5.307  1.00  0.00     0.000 C 
BRANCH   4   5
ATOM      5  C   UNL     1     -32.668  20.131   4.183  1.00  0.00     0.000 C 
BRANCH   5   6
ATOM      6  C   UNL     1     -32.310  18.742   4.726  1.00  0.00     0.006 C 
BRANCH   6   7
ATOM      7  C   UNL     1     -32.830  18.519   6.146  1.00  0.00     0.053 C 
BRANCH   7   8
ATOM      8  C   UNL     1     -31.728  18.284   7.151  1.00  0.00     0.041 C 
ATOM      9  O   UNL     1     -31.785  18.514   8.349  1.00  0.00    -0.550 OA
ATOM     10  O   UNL     1     -30.645  17.741   6.538  1.00  0.00    -0.550 OA
ENDBRANCH   7   8
ENDBRANCH   6   7
ENDBRANCH   5   6
ENDBRANCH   4   5
ENDBRANCH   3   4
ENDBRANCH   2   3
ENDBRANCH   1   2
BRANCH   1  11
ATOM     11  C   UNL     1     -32.123  24.304   7.596  1.00  0.00    -0.031 C 
ATOM     12  C   UNL     1     -33.322  24.901   7.524  1.00  0.00    -0.027 C 
BRANCH  12  13
ATOM     13  C   UNL     1     -34.607  24.241   7.929  1.00  0.00     0.054 C 
BRANCH  13  14
ATOM     14  C   UNL     1     -35.299  23.613   6.753  1.00  0.00    -0.027 C 
ATOM     15  C   UNL     1     -35.982  22.460   6.825  1.00  0.00    -0.031 C 
BRANCH  15  16
ATOM     16  C   UNL     1     -36.188  21.594   8.038  1.00  0.00     0.027 C 
BRANCH  16  17
ATOM     17  C   UNL     1     -35.199  20.439   8.239  1.00  0.00     0.004 C 
BRANCH  17  18
ATOM     18  C   UNL     1     -34.176  20.772   9.329  1.00  0.00     0.000 C 
BRANCH  18  19
ATOM     19  C   UNL     1     -34.795  21.443  10.557  1.00  0.00    -0.003 C 
ATOM     20  C   UNL     1     -33.964  22.593  11.105  1.00  0.00     0.004 C 
ENDBRANCH  18  19
ENDBRANCH  17  18
ENDBRANCH  16  17
ENDBRANCH  15  16
ENDBRANCH  13  14
ENDBRANCH  12  13
ENDBRANCH   1  11
TORSDOF 14
ENDMDL
MODEL 2
REMARK VINA RESULT:    -6.335      3.262      4.747
REMARK INTER + INTRA:         -14.453
REMARK INTER:                 -11.646
REMARK INTRA:                  -2.807
REMARK UNBOUND:                -2.934
REMARK SMILES CCCCC/C=C\C/C=C\CCCCCCCC(=O)[O-]
REMARK SMILES IDX 11 1 12 2 13 3 14 4 15 5 16 6 17 7 18 8 19 9 20 10 10 11
REMARK SMILES IDX 9 12 8 13 7 14 6 15 5 16 4 17 3 18 2 19 1 20
REMARK H PARENT
REMARK INDEX MAP 8 1 6 2 4 3 3 4 5 5 7 6 9 7 18 8 2 9 1 10 12 11 15 12 16 13
REMARK INDEX MAP 19 14 17 15 13 16 10 17 11 18 14 19 20 20
ROOT
ATOM      1  C   UNL     1     -32.489  20.063   5.984  1.00  0.00     0.027 C 
ENDROOT
BRANCH   1   2
ATOM      2  C   UNL     1     -34.020  19.993   5.928  1.00  0.00     0.004 C 
BRANCH   2   3
ATOM      3  C   UNL     1     -34.618  20.759   4.743  1.00  0.00     0.000 C 
BRANCH   3   4
ATOM      4  C   UNL     1     -36.052  21.238   4.993  1.00  0.00     0.000 C 
BRANCH   4   5
ATOM      5  C   UNL     1     -37.086  20.555   4.093  1.00  0.00     0.000 C 
BRANCH   5   6
ATOM      6  C   UNL     1     -38.450  20.465   4.788  1.00  0.00     0.006 C 
BRANCH   6   7
ATOM      7  C   UNL     1     -38.324  20.270   6.298  1.00  0.00     0.053 C 
BRANCH   7   8
ATOM      8  C   UNL     1     -39.252  21.158   7.090  1.00  0.00     0.041 C 
ATOM      9  O   UNL     1     -39.110  22.355   7.287  1.00  0.00    -0.550 OA
ATOM     10  O   UNL     1     -40.312  20.441   7.543  1.00  0.00    -0.550 OA
ENDBRANCH   7   8
ENDBRANCH   6   7
ENDBRANCH   5   6
ENDBRANCH   4   5
ENDBRANCH   3   4
ENDBRANCH   2   3
ENDBRANCH   1   2
BRANCH   1  11
ATOM     11  C   UNL     1     -31.974  20.704   7.241  1.00  0.00    -0.031 C 
ATOM     12  C   UNL     1     -31.728  22.017   7.361  1.00  0.00    -0.027 C 
BRANCH  12  13
ATOM     13  C   UNL     1     -31.939  23.008   6.254  1.00  0.00     0.054 C 
BRANCH  13  14
ATOM     14  C   UNL     1     -32.328  24.357   6.789  1.00  0.00    -0.027 C 
ATOM     15  C   UNL     1     -33.592  24.702   7.080  1.00  0.00    -0.031 C 
BRANCH  15  16
ATOM     16  C   UNL     1     -34.827  23.853   6.937  1.00  0.00     0.027 C 
BRANCH  16  17
ATOM     17  C   UNL     1     -35.569  23.489   8.229  1.00  0.00     0.004 C 
BRANCH  17  18
ATOM     18  C   UNL     1     -35.554  21.976   8.466  1.00  0.00     0.000 C 
BRANCH  18  19
ATOM     19  C   UNL     1     -34.664  21.554   9.637  1.00  0.00    -0.003 C 
ATOM     20  C   UNL     1     -34.102  22.727  10.425  1.00  0.00     0.004 C 
ENDBRANCH  18  19
ENDBRANCH  17  18
ENDBRANCH  16  17
ENDBRANCH  15  16
ENDBRANCH  13  14
ENDBRANCH  12  13
ENDBRANCH   1  11
TORSDOF 14
ENDMDL
MODEL 3
REMARK VINA RESULT:    -6.297      2.198      3.963
REMARK INTER + INTRA:         -14.384
REMARK INTER:                 -11.943
REMARK INTRA:                  -2.441
REMARK UNBOUND:                -2.934
REMARK SMILES CCCCC/C=C\C/C=C\CCCCCCCC(=O)[O-]
REMARK SMILES IDX 11 1 12 2 13 3 14 4 15 5 16 6 17 7 18 8 19 9 20 10 10 11
REMARK SMILES IDX 9 12 8 13 7 14 6 15 5 16 4 17 3 18 2 19 1 20
REMARK H PARENT
REMARK INDEX MAP 8 1 6 2 4 3 3 4 5 5 7 6 9 7 18 8 2 9 1 10 12 11 15 12 16 13
REMARK INDEX MAP 19 14 17 15 13 16 10 17 11 18 14 19 20 20
ROOT
ATOM      1  C   UNL     1     -34.712  21.794  10.199  1.00  0.00     0.027 C 
ENDROOT
BRANCH   1   2
ATOM      2  C   UNL     1     -34.605  20.455  10.937  1.00  0.00     0.004 C 
BRANCH   2   3
ATOM      3  C   UNL     1     -34.120  19.307  10.045  1.00  0.00     0.000 C 
BRANCH   3   4
ATOM      4  C   UNL     1     -34.124  19.657   8.553  1.00  0.00     0.000 C 
BRANCH   4   5
ATOM      5  C   UNL     1     -33.130  18.830   7.733  1.00  0.00     0.000 C 
BRANCH   5   6
ATOM      6  C   UNL     1     -32.356  19.713   6.747  1.00  0.00     0.006 C 
BRANCH   6   7
ATOM      7  C   UNL     1     -32.950  19.677   5.340  1.00  0.00     0.053 C 
BRANCH   7   8
ATOM      8  C   UNL     1     -32.953  21.026   4.662  1.00  0.00     0.041 C 
ATOM      9  O   UNL     1     -32.341  22.017   5.029  1.00  0.00    -0.550 OA
ATOM     10  O   UNL     1     -33.723  20.985   3.545  1.00  0.00    -0.550 OA
ENDBRANCH   7   8
ENDBRANCH   6   7
ENDBRANCH   5   6
ENDBRANCH   4   5
ENDBRANCH   3   4
ENDBRANCH   2   3
ENDBRANCH   1   2
BRANCH   1  11
ATOM     11  C   UNL     1     -33.654  22.779  10.609  1.00  0.00    -0.031 C 
ATOM     12  C   UNL     1     -32.814  23.372   9.748  1.00  0.00    -0.027 C 
BRANCH  12  13
ATOM     13  C   UNL     1     -32.828  23.125   8.268  1.00  0.00     0.054 C 
BRANCH  13  14
ATOM     14  C   UNL     1     -33.568  24.208   7.536  1.00  0.00    -0.027 C 
ATOM     15  C   UNL     1     -34.698  23.995   6.844  1.00  0.00    -0.031 C 
BRANCH  15  16
ATOM     16  C   UNL     1     -35.427  22.691   6.662  1.00  0.00     0.027 C 
BRANCH  16  17
ATOM     17  C   UNL     1     -36.735  22.515   7.442  1.00  0.00     0.004 C 
BRANCH  17  18
ATOM     18  C   UNL     1     -37.265  21.084   7.316  1.00  0.00     0.000 C 
BRANCH  18  19
ATOM     19  C   UNL     1     -38.662  21.008   6.695  1.00  0.00    -0.003 C 
ATOM     20  C   UNL     1     -39.701  20.381   7.612  1.00  0.00     0.004 C 
ENDBRANCH  18  19
ENDBRANCH  17  18
ENDBRANCH  16  17
ENDBRANCH  15  16
ENDBRANCH  13  14
ENDBRANCH  12  13
ENDBRANCH   1  11
TORSDOF 14
ENDMDL
MODEL 4
REMARK VINA RESULT:    -6.256      1.648      3.384
REMARK INTER + INTRA:         -14.310
REMARK INTER:                 -11.994
REMARK INTRA:                  -2.316
REMARK UNBOUND:                -2.934
REMARK SMILES CCCCC/C=C\C/C=C\CCCCCCCC(=O)[O-]
REMARK SMILES IDX 11 1 12 2 13 3 14 4 15 5 16 6 17 7 18 8 19 9 20 10 10 11
REMARK SMILES IDX 9 12 8 13 7 14 6 15 5 16 4 17 3 18 2 19 1 20
REMARK H PARENT
REMARK INDEX MAP 8 1 6 2 4 3 3 4 5 5 7 6 9 7 18 8 2 9 1 10 12 11 15 12 16 13
REMARK INDEX MAP 19 14 17 15 13 16 10 17 11 18 14 19 20 20
ROOT
ATOM      1  C   UNL     1     -32.524  23.046   9.220  1.00  0.00     0.027 C 
ENDROOT
BRANCH   1   2
ATOM      2  C   UNL     1     -33.603  22.897  10.299  1.00  0.00     0.004 C 
BRANCH   2   3
ATOM      3  C   UNL     1     -34.676  21.862   9.944  1.00  0.00     0.000 C 
BRANCH   3   4
ATOM      4  C   UNL     1     -34.385  20.469  10.512  1.00  0.00     0.000 C 
BRANCH   4   5
ATOM      5  C   UNL     1     -34.382  19.368   9.448  1.00  0.00     0.000 C 
BRANCH   5   6
ATOM      6  C   UNL     1     -33.289  19.614   8.401  1.00  0.00     0.006 C 
BRANCH   6   7
ATOM      7  C   UNL     1     -33.227  18.505   7.352  1.00  0.00     0.053 C 
BRANCH   7   8
ATOM      8  C   UNL     1     -31.830  18.248   6.842  1.00  0.00     0.041 C 
ATOM      9  O   UNL     1     -30.822  18.146   7.524  1.00  0.00    -0.550 OA
ATOM     10  O   UNL     1     -31.843  18.112   5.491  1.00  0.00    -0.550 OA
ENDBRANCH   7   8
ENDBRANCH   6   7
ENDBRANCH   5   6
ENDBRANCH   4   5
ENDBRANCH   3   4
ENDBRANCH   2   3
ENDBRANCH   1   2
BRANCH   1  11
ATOM     11  C   UNL     1     -32.166  24.478   8.937  1.00  0.00    -0.031 C 
ATOM     12  C   UNL     1     -32.507  25.121   7.810  1.00  0.00    -0.027 C 
BRANCH  12  13
ATOM     13  C   UNL     1     -33.287  24.492   6.694  1.00  0.00     0.054 C 
BRANCH  13  14
ATOM     14  C   UNL     1     -34.732  24.315   7.064  1.00  0.00    -0.027 C 
ATOM     15  C   UNL     1     -35.427  23.192   6.824  1.00  0.00    -0.031 C 
BRANCH  15  16
ATOM     16  C   UNL     1     -34.929  21.933   6.165  1.00  0.00     0.027 C 
BRANCH  16  17
ATOM     17  C   UNL     1     -35.943  20.795   5.995  1.00  0.00     0.004 C 
BRANCH  17  18
ATOM     18  C   UNL     1     -36.998  20.825   7.105  1.00  0.00     0.000 C 
BRANCH  18  19
ATOM     19  C   UNL     1     -38.431  20.908   6.576  1.00  0.00    -0.003 C 
ATOM     20  C   UNL     1     -39.287  21.937   7.300  1.00  0.00     0.004 C 
ENDBRANCH  18  19
ENDBRANCH  17  18
ENDBRANCH  16  17
ENDBRANCH  15  16
ENDBRANCH  13  14
ENDBRANCH  12  13
ENDBRANCH   1  11
TORSDOF 14
ENDMDL
MODEL 5
REMARK VINA RESULT:    -6.201      3.110      5.230
REMARK INTER + INTRA:         -14.209
REMARK INTER:                 -11.526
REMARK INTRA:                  -2.683
REMARK UNBOUND:                -2.934
REMARK SMILES CCCCC/C=C\C/C=C\CCCCCCCC(=O)[O-]
REMARK SMILES IDX 11 1 12 2 13 3 14 4 15 5 16 6 17 7 18 8 19 9 20 10 10 11
REMARK SMILES IDX 9 12 8 13 7 14 6 15 5 16 4 17 3 18 2 19 1 20
REMARK H PARENT
REMARK INDEX MAP 8 1 6 2 4 3 3 4 5 5 7 6 9 7 18 8 2 9 1 10 12 11 15 12 16 13
REMARK INDEX MAP 19 14 17 15 13 16 10 17 11 18 14 19 20 20
ROOT
ATOM      1  C   UNL     1     -32.503  20.446   6.325  1.00  0.00     0.027 C 
ENDROOT
BRANCH   1   2
ATOM      2  C   UNL     1     -33.313  21.442   5.487  1.00  0.00     0.004 C 
BRANCH   2   3
ATOM      3  C   UNL     1     -34.467  20.790   4.718  1.00  0.00     0.000 C 
BRANCH   3   4
ATOM      4  C   UNL     1     -35.842  21.353   5.094  1.00  0.00     0.000 C 
BRANCH   4   5
ATOM      5  C   UNL     1     -35.861  22.044   6.460  1.00  0.00     0.000 C 
BRANCH   5   6
ATOM      6  C   UNL     1     -37.187  21.793   7.189  1.00  0.00     0.006 C 
BRANCH   6   7
ATOM      7  C   UNL     1     -37.741  20.394   6.924  1.00  0.00     0.053 C 
BRANCH   7   8
ATOM      8  C   UNL     1     -39.247  20.327   7.006  1.00  0.00     0.041 C 
ATOM      9  O   UNL     1     -39.920  20.470   8.016  1.00  0.00    -0.550 OA
ATOM     10  O   UNL     1     -39.774  20.111   5.774  1.00  0.00    -0.550 OA
ENDBRANCH   7   8
ENDBRANCH   6   7
ENDBRANCH   5   6
ENDBRANCH   4   5
ENDBRANCH   3   4
ENDBRANCH   2   3
ENDBRANCH   1   2
BRANCH   1  11
ATOM     11  C   UNL     1     -33.234  19.157   6.578  1.00  0.00    -0.031 C 
ATOM     12  C   UNL     1     -33.644  18.760   7.792  1.00  0.00    -0.027 C 
BRANCH  12  13
ATOM     13  C   UNL     1     -33.427  19.554   9.046  1.00  0.00     0.054 C 
BRANCH  13  14
ATOM     14  C   UNL     1     -34.729  19.965   9.672  1.00  0.00    -0.027 C 
ATOM     15  C   UNL     1     -34.948  21.180  10.198  1.00  0.00    -0.031 C 
BRANCH  15  16
ATOM     16  C   UNL     1     -33.981  22.331  10.272  1.00  0.00     0.027 C 
BRANCH  16  17
ATOM     17  C   UNL     1     -33.709  23.091   8.968  1.00  0.00     0.004 C 
BRANCH  17  18
ATOM     18  C   UNL     1     -32.244  23.526   8.878  1.00  0.00     0.000 C 
BRANCH  18  19
ATOM     19  C   UNL     1     -32.061  24.917   8.266  1.00  0.00    -0.003 C 
ATOM     20  C   UNL     1     -32.786  25.097   6.941  1.00  0.00     0.004 C 
ENDBRANCH  18  19
ENDBRANCH  17  18
ENDBRANCH  16  17
ENDBRANCH  15  16
ENDBRANCH  13  14
ENDBRANCH  12  13
ENDBRANCH   1  11
TORSDOF 14
ENDMDL
MODEL 6
REMARK VINA RESULT:    -6.168      2.085      2.647
REMARK INTER + INTRA:         -14.149
REMARK INTER:                 -11.590
REMARK INTRA:                  -2.559
REMARK UNBOUND:                -2.934
REMARK SMILES CCCCC/C=C\C/C=C\CCCCCCCC(=O)[O-]
REMARK SMILES IDX 11 1 12 2 13 3 14 4 15 5 16 6 17 7 18 8 19 9 20 10 10 11
REMARK SMILES IDX 9 12 8 13 7 14 6 15 5 16 4 17 3 18 2 19 1 20
REMARK H PARENT
REMARK INDEX MAP 8 1 6 2 4 3 3 4 5 5 7 6 9 7 18 8 2 9 1 10 12 11 15 12 16 13
REMARK INDEX MAP 19 14 17 15 13 16 10 17 11 18 14 19 20 20
ROOT
ATOM      1  C   UNL     1     -32.100  22.566   6.721  1.00  0.00     0.027 C 
ENDROOT
BRANCH   1   2
ATOM      2  C   UNL     1     -31.691  21.708   7.924  1.00  0.00     0.004 C 
BRANCH   2   3
ATOM      3  C   UNL     1     -31.038  20.379   7.528  1.00  0.00     0.000 C 
BRANCH   3   4
ATOM      4  C   UNL     1     -31.891  19.156   7.882  1.00  0.00     0.000 C 
BRANCH   4   5
ATOM      5  C   UNL     1     -32.309  18.333   6.661  1.00  0.00     0.000 C 
BRANCH   5   6
ATOM      6  C   UNL     1     -32.524  19.232   5.437  1.00  0.00     0.006 C 
BRANCH   6   7
ATOM      7  C   UNL     1     -33.956  19.755   5.341  1.00  0.00     0.053 C 
BRANCH   7   8
ATOM      8  C   UNL     1     -34.137  20.798   4.264  1.00  0.00     0.041 C 
ATOM      9  O   UNL     1     -35.046  21.610   4.194  1.00  0.00    -0.550 OA
ATOM     10  O   UNL     1     -33.113  20.733   3.375  1.00  0.00    -0.550 OA
ENDBRANCH   7   8
ENDBRANCH   6   7
ENDBRANCH   5   6
ENDBRANCH   4   5
ENDBRANCH   3   4
ENDBRANCH   2   3
ENDBRANCH   1   2
BRANCH   1  11
ATOM     11  C   UNL     1     -32.141  24.035   7.031  1.00  0.00    -0.031 C 
ATOM     12  C   UNL     1     -33.259  24.775   6.984  1.00  0.00    -0.027 C 
BRANCH  12  13
ATOM     13  C   UNL     1     -34.607  24.226   6.619  1.00  0.00     0.054 C 
BRANCH  13  14
ATOM     14  C   UNL     1     -35.538  24.219   7.797  1.00  0.00    -0.027 C 
ATOM     15  C   UNL     1     -36.082  23.102   8.306  1.00  0.00    -0.031 C 
BRANCH  15  16
ATOM     16  C   UNL     1     -35.885  21.690   7.825  1.00  0.00     0.027 C 
BRANCH  16  17
ATOM     17  C   UNL     1     -35.056  20.763   8.722  1.00  0.00     0.004 C 
BRANCH  17  18
ATOM     18  C   UNL     1     -34.628  21.478  10.008  1.00  0.00     0.000 C 
BRANCH  18  19
ATOM     19  C   UNL     1     -34.788  20.616  11.262  1.00  0.00    -0.003 C 
ATOM     20  C   UNL     1     -34.187  19.226  11.125  1.00  0.00     0.004 C 
ENDBRANCH  18  19
ENDBRANCH  17  18
ENDBRANCH  16  17
ENDBRANCH  15  16
ENDBRANCH  13  14
ENDBRANCH  12  13
ENDBRANCH   1  11
TORSDOF 14
ENDMDL
MODEL 7
REMARK VINA RESULT:    -6.128      3.281      4.982
REMARK INTER + INTRA:         -14.077
REMARK INTER:                 -11.579
REMARK INTRA:                  -2.499
REMARK UNBOUND:                -2.934
REMARK SMILES CCCCC/C=C\C/C=C\CCCCCCCC(=O)[O-]
REMARK SMILES IDX 11 1 12 2 13 3 14 4 15 5 16 6 17 7 18 8 19 9 20 10 10 11
REMARK SMILES IDX 9 12 8 13 7 14 6 15 5 16 4 17 3 18 2 19 1 20
REMARK H PARENT
REMARK INDEX MAP 8 1 6 2 4 3 3 4 5 5 7 6 9 7 18 8 2 9 1 10 12 11 15 12 16 13
REMARK INDEX MAP 19 14 17 15 13 16 10 17 11 18 14 19 20 20
ROOT
ATOM      1  C   UNL     1     -33.961  24.239   6.850  1.00  0.00     0.027 C 
ENDROOT
BRANCH   1   2
ATOM      2  C   UNL     1     -35.349  24.203   7.500  1.00  0.00     0.004 C 
BRANCH   2   3
ATOM      3  C   UNL     1     -36.158  22.955   7.131  1.00  0.00     0.000 C 
BRANCH   3   4
ATOM      4  C   UNL     1     -35.519  22.126   6.012  1.00  0.00     0.000 C 
BRANCH   4   5
ATOM      5  C   UNL     1     -36.081  20.706   5.912  1.00  0.00     0.000 C 
BRANCH   5   6
ATOM      6  C   UNL     1     -37.604  20.725   5.733  1.00  0.00     0.006 C 
BRANCH   6   7
ATOM      7  C   UNL     1     -38.335  20.041   6.887  1.00  0.00     0.053 C 
BRANCH   7   8
ATOM      8  C   UNL     1     -39.700  20.628   7.156  1.00  0.00     0.041 C 
ATOM      9  O   UNL     1     -40.671  20.025   7.588  1.00  0.00    -0.550 OA
ATOM     10  O   UNL     1     -39.700  21.956   6.877  1.00  0.00    -0.550 OA
ENDBRANCH   7   8
ENDBRANCH   6   7
ENDBRANCH   5   6
ENDBRANCH   4   5
ENDBRANCH   3   4
ENDBRANCH   2   3
ENDBRANCH   1   2
BRANCH   1  11
ATOM     11  C   UNL     1     -32.960  25.033   7.641  1.00  0.00    -0.031 C 
ATOM     12  C   UNL     1     -32.260  24.533   8.670  1.00  0.00    -0.027 C 
BRANCH  12  13
ATOM     13  C   UNL     1     -32.390  23.120   9.158  1.00  0.00     0.054 C 
BRANCH  13  14
ATOM     14  C   UNL     1     -33.306  23.028  10.344  1.00  0.00    -0.027 C 
ATOM     15  C   UNL     1     -34.296  22.127  10.448  1.00  0.00    -0.031 C 
BRANCH  15  16
ATOM     16  C   UNL     1     -34.679  21.071   9.446  1.00  0.00     0.027 C 
BRANCH  16  17
ATOM     17  C   UNL     1     -34.096  19.670   9.662  1.00  0.00     0.004 C 
BRANCH  17  18
ATOM     18  C   UNL     1     -33.643  19.050   8.337  1.00  0.00     0.000 C 
BRANCH  18  19
ATOM     19  C   UNL     1     -32.787  19.993   7.488  1.00  0.00    -0.003 C 
ATOM     20  C   UNL     1     -32.594  19.517   6.057  1.00  0.00     0.004 C 
ENDBRANCH  18  19
ENDBRANCH  17  18
ENDBRANCH  16  17
ENDBRANCH  15  16
ENDBRANCH  13  14
ENDBRANCH  12  13
ENDBRANCH   1  11
TORSDOF 14
ENDMDL
MODEL 8
REMARK VINA RESULT:    -6.115      1.579      3.914
REMARK INTER + INTRA:         -14.053
REMARK INTER:                 -11.657
REMARK INTRA:                  -2.395
REMARK UNBOUND:                -2.934
REMARK SMILES CCCCC/C=C\C/C=C\CCCCCCCC(=O)[O-]
REMARK SMILES IDX 11 1 12 2 13 3 14 4 15 5 16 6 17 7 18 8 19 9 20 10 10 11
REMARK SMILES IDX 9 12 8 13 7 14 6 15 5 16 4 17 3 18 2 19 1 20
REMARK H PARENT
REMARK INDEX MAP 8 1 6 2 4 3 3 4 5 5 7 6 9 7 18 8 2 9 1 10 12 11 15 12 16 13
REMARK INDEX MAP 19 14 17 15 13 16 10 17 11 18 14 19 20 20
ROOT
ATOM      1  C   UNL     1     -37.363  20.459   6.437  1.00  0.00     0.027 C 
ENDROOT
BRANCH   1   2
ATOM      2  C   UNL     1     -37.300  20.511   4.906  1.00  0.00     0.004 C 
BRANCH   2   3
ATOM      3  C   UNL     1     -35.915  20.883   4.368  1.00  0.00     0.000 C 
BRANCH   3   4
ATOM      4  C   UNL     1     -34.768  20.412   5.269  1.00  0.00     0.000 C 
BRANCH   4   5
ATOM      5  C   UNL     1     -33.569  21.364   5.273  1.00  0.00     0.000 C 
BRANCH   5   6
ATOM      6  C   UNL     1     -32.448  20.838   6.177  1.00  0.00     0.006 C 
BRANCH   6   7
ATOM      7  C   UNL     1     -32.910  19.686   7.068  1.00  0.00     0.053 C 
BRANCH   7   8
ATOM      8  C   UNL     1     -32.003  18.481   6.998  1.00  0.00     0.041 C 
ATOM      9  O   UNL     1     -31.331  18.032   7.914  1.00  0.00    -0.550 OA
ATOM     10  O   UNL     1     -32.055  17.929   5.759  1.00  0.00    -0.550 OA
ENDBRANCH   7   8
ENDBRANCH   6   7
ENDBRANCH   5   6
ENDBRANCH   4   5
ENDBRANCH   3   4
ENDBRANCH   2   3
ENDBRANCH   1   2
BRANCH   1  11
ATOM     11  C   UNL     1     -37.987  21.684   7.043  1.00  0.00    -0.031 C 
ATOM     12  C   UNL     1     -37.290  22.639   7.678  1.00  0.00    -0.027 C 
BRANCH  12  13
ATOM     13  C   UNL     1     -35.801  22.603   7.859  1.00  0.00     0.054 C 
BRANCH  13  14
ATOM     14  C   UNL     1     -35.399  21.613   8.914  1.00  0.00    -0.027 C 
ATOM     15  C   UNL     1     -34.422  21.838   9.808  1.00  0.00    -0.031 C 
BRANCH  15  16
ATOM     16  C   UNL     1     -33.565  23.069   9.933  1.00  0.00     0.027 C 
BRANCH  16  17
ATOM     17  C   UNL     1     -32.470  23.260   8.876  1.00  0.00     0.004 C 
BRANCH  17  18
ATOM     18  C   UNL     1     -31.933  24.694   8.891  1.00  0.00     0.000 C 
BRANCH  18  19
ATOM     19  C   UNL     1     -32.459  25.549   7.736  1.00  0.00    -0.003 C 
ATOM     20  C   UNL     1     -33.263  24.762   6.713  1.00  0.00     0.004 C 
ENDBRANCH  18  19
ENDBRANCH  17  18
ENDBRANCH  16  17
ENDBRANCH  15  16
ENDBRANCH  13  14
ENDBRANCH  12  13
ENDBRANCH   1  11
TORSDOF 14
ENDMDL
MODEL 9
REMARK VINA RESULT:    -6.080      1.251      3.075
REMARK INTER + INTRA:         -13.990
REMARK INTER:                 -11.375
REMARK INTRA:                  -2.614
REMARK UNBOUND:                -2.934
REMARK SMILES CCCCC/C=C\C/C=C\CCCCCCCC(=O)[O-]
REMARK SMILES IDX 11 1 12 2 13 3 14 4 15 5 16 6 17 7 18 8 19 9 20 10 10 11
REMARK SMILES IDX 9 12 8 13 7 14 6 15 5 16 4 17 3 18 2 19 1 20
REMARK H PARENT
REMARK INDEX MAP 8 1 6 2 4 3 3 4 5 5 7 6 9 7 18 8 2 9 1 10 12 11 15 12 16 13
REMARK INDEX MAP 19 14 17 15 13 16 10 17 11 18 14 19 20 20
ROOT
ATOM      1  C   UNL     1     -36.515  21.853   7.576  1.00  0.00     0.027 C 
ENDROOT
BRANCH   1   2
ATOM      2  C   UNL     1     -37.324  21.451   6.338  1.00  0.00     0.004 C 
BRANCH   2   3
ATOM      3  C   UNL     1     -36.455  20.936   5.186  1.00  0.00     0.000 C 
BRANCH   3   4
ATOM      4  C   UNL     1     -35.084  20.424   5.643  1.00  0.00     0.000 C 
BRANCH   4   5
ATOM      5  C   UNL     1     -33.972  20.676   4.623  1.00  0.00     0.000 C 
BRANCH   5   6
ATOM      6  C   UNL     1     -32.602  20.286   5.190  1.00  0.00     0.006 C 
BRANCH   6   7
ATOM      7  C   UNL     1     -32.686  19.803   6.638  1.00  0.00     0.053 C 
BRANCH   7   8
ATOM      8  C   UNL     1     -31.822  18.596   6.912  1.00  0.00     0.041 C 
ATOM      9  O   UNL     1     -31.458  18.205   8.011  1.00  0.00    -0.550 OA
ATOM     10  O   UNL     1     -31.517  17.965   5.749  1.00  0.00    -0.550 OA
ENDBRANCH   7   8
ENDBRANCH   6   7
ENDBRANCH   5   6
ENDBRANCH   4   5
ENDBRANCH   3   4
ENDBRANCH   2   3
ENDBRANCH   1   2
BRANCH   1  11
ATOM     11  C   UNL     1     -36.578  23.325   7.870  1.00  0.00    -0.031 C 
ATOM     12  C   UNL     1     -35.593  24.187   7.575  1.00  0.00    -0.027 C 
BRANCH  12  13
ATOM     13  C   UNL     1     -34.307  23.787   6.915  1.00  0.00     0.054 C 
BRANCH  13  14
ATOM     14  C   UNL     1     -33.130  24.492   7.528  1.00  0.00    -0.027 C 
ATOM     15  C   UNL     1     -32.486  24.046   8.618  1.00  0.00    -0.031 C 
BRANCH  15  16
ATOM     16  C   UNL     1     -32.792  22.809   9.419  1.00  0.00     0.027 C 
BRANCH  16  17
ATOM     17  C   UNL     1     -33.775  22.967  10.586  1.00  0.00     0.004 C 
BRANCH  17  18
ATOM     18  C   UNL     1     -34.490  21.646  10.887  1.00  0.00     0.000 C 
BRANCH  18  19
ATOM     19  C   UNL     1     -34.448  20.655   9.722  1.00  0.00    -0.003 C 
ATOM     20  C   UNL     1     -34.085  19.239  10.142  1.00  0.00     0.004 C 
ENDBRANCH  18  19
ENDBRANCH  17  18
ENDBRANCH  16  17
ENDBRANCH  15  16
ENDBRANCH  13  14
ENDBRANCH  12  13
ENDBRANCH   1  11
TORSDOF 14
ENDMDL
MODEL 10
REMARK VINA RESULT:    -6.079      2.037      4.111
REMARK INTER + INTRA:         -13.989
REMARK INTER:                 -11.725
REMARK INTRA:                  -2.263
REMARK UNBOUND:                -2.934
REMARK SMILES CCCCC/C=C\C/C=C\CCCCCCCC(=O)[O-]
REMARK SMILES IDX 11 1 12 2 13 3 14 4 15 5 16 6 17 7 18 8 19 9 20 10 10 11
REMARK SMILES IDX 9 12 8 13 7 14 6 15 5 16 4 17 3 18 2 19 1 20
REMARK H PARENT
REMARK INDEX MAP 8 1 6 2 4 3 3 4 5 5 7 6 9 7 18 8 2 9 1 10 12 11 15 12 16 13
REMARK INDEX MAP 19 14 17 15 13 16 10 17 11 18 14 19 20 20
ROOT
ATOM      1  C   UNL     1     -34.877  21.460  10.030  1.00  0.00     0.027 C 
ENDROOT
BRANCH   1   2
ATOM      2  C   UNL     1     -34.401  20.003  10.054  1.00  0.00     0.004 C 
BRANCH   2   3
ATOM      3  C   UNL     1     -34.091  19.443   8.662  1.00  0.00     0.000 C 
BRANCH   3   4
ATOM      4  C   UNL     1     -32.633  19.000   8.497  1.00  0.00     0.000 C 
BRANCH   4   5
ATOM      5  C   UNL     1     -31.884  19.771   7.408  1.00  0.00     0.000 C 
BRANCH   5   6
ATOM      6  C   UNL     1     -32.852  20.593   6.547  1.00  0.00     0.006 C 
BRANCH   6   7
ATOM      7  C   UNL     1     -33.390  19.800   5.356  1.00  0.00     0.053 C 
BRANCH   7   8
ATOM      8  C   UNL     1     -33.446  20.608   4.082  1.00  0.00     0.041 C 
ATOM      9  O   UNL     1     -32.648  20.554   3.160  1.00  0.00    -0.550 OA
ATOM     10  O   UNL     1     -34.545  21.404   4.082  1.00  0.00    -0.550 OA
ENDBRANCH   7   8
ENDBRANCH   6   7
ENDBRANCH   5   6
ENDBRANCH   4   5
ENDBRANCH   3   4
ENDBRANCH   2   3
ENDBRANCH   1   2
BRANCH   1  11
ATOM     11  C   UNL     1     -34.121  22.343  10.981  1.00  0.00    -0.031 C 
ATOM     12  C   UNL     1     -33.061  23.085  10.626  1.00  0.00    -0.027 C 
BRANCH  12  13
ATOM     13  C   UNL     1     -32.501  23.127   9.235  1.00  0.00     0.054 C 
BRANCH  13  14
ATOM     14  C   UNL     1     -32.210  24.535   8.800  1.00  0.00    -0.027 C 
ATOM     15  C   UNL     1     -32.767  25.107   7.721  1.00  0.00    -0.031 C 
BRANCH  15  16
ATOM     16  C   UNL     1     -33.751  24.489   6.765  1.00  0.00     0.027 C 
BRANCH  16  17
ATOM     17  C   UNL     1     -35.126  24.117   7.332  1.00  0.00     0.004 C 
BRANCH  17  18
ATOM     18  C   UNL     1     -35.635  22.804   6.730  1.00  0.00     0.000 C 
BRANCH  18  19
ATOM     19  C   UNL     1     -36.883  22.260   7.429  1.00  0.00    -0.003 C 
ATOM     20  C   UNL     1     -37.266  20.857   6.983  1.00  0.00     0.004 C 
ENDBRANCH  18  19
ENDBRANCH  17  18
ENDBRANCH  16  17
ENDBRANCH  15  16
ENDBRANCH  13  14
ENDBRANCH  12  13
ENDBRANCH   1  11
TORSDOF 14
ENDMDL
MODEL 11
REMARK VINA RESULT:    -6.076      3.354      5.429
REMARK INTER + INTRA:         -13.983
REMARK INTER:                 -11.377
REMARK INTRA:                  -2.606
REMARK UNBOUND:                -2.934
REMARK SMILES CCCCC/C=C\C/C=C\CCCCCCCC(=O)[O-]
REMARK SMILES IDX 11 1 12 2 13 3 14 4 15 5 16 6 17 7 18 8 19 9 20 10 10 11
REMARK SMILES IDX 9 12 8 13 7 14 6 15 5 16 4 17 3 18 2 19 1 20
REMARK H PARENT
REMARK INDEX MAP 8 1 6 2 4 3 3 4 5 5 7 6 9 7 18 8 2 9 1 10 12 11 15 12 16 13
REMARK INDEX MAP 19 14 17 15 13 16 10 17 11 18 14 19 20 20
ROOT
ATOM      1  C   UNL     1     -32.628  20.244   5.304  1.00  0.00     0.027 C 
ENDROOT
BRANCH   1   2
ATOM      2  C   UNL     1     -33.723  20.568   4.280  1.00  0.00     0.004 C 
BRANCH   2   3
ATOM      3  C   UNL     1     -35.039  21.018   4.923  1.00  0.00     0.000 C 
BRANCH   3   4
ATOM      4  C   UNL     1     -36.280  20.555   4.151  1.00  0.00     0.000 C 
BRANCH   4   5
ATOM      5  C   UNL     1     -37.561  20.587   4.988  1.00  0.00     0.000 C 
BRANCH   5   6
ATOM      6  C   UNL     1     -37.282  21.093   6.409  1.00  0.00     0.006 C 
BRANCH   6   7
ATOM      7  C   UNL     1     -38.251  20.511   7.437  1.00  0.00     0.053 C 
BRANCH   7   8
ATOM      8  C   UNL     1     -39.648  21.072   7.319  1.00  0.00     0.041 C 
ATOM      9  O   UNL     1     -39.940  22.217   7.008  1.00  0.00    -0.550 OA
ATOM     10  O   UNL     1     -40.564  20.105   7.581  1.00  0.00    -0.550 OA
ENDBRANCH   7   8
ENDBRANCH   6   7
ENDBRANCH   5   6
ENDBRANCH   4   5
ENDBRANCH   3   4
ENDBRANCH   2   3
ENDBRANCH   1   2
BRANCH   1  11
ATOM     11  C   UNL     1     -32.906  18.993   6.088  1.00  0.00    -0.031 C 
ATOM     12  C   UNL     1     -33.200  18.985   7.397  1.00  0.00    -0.027 C 
BRANCH  12  13
ATOM     13  C   UNL     1     -33.290  20.223   8.238  1.00  0.00     0.054 C 
BRANCH  13  14
ATOM     14  C   UNL     1     -34.522  20.217   9.099  1.00  0.00    -0.027 C 
ATOM     15  C   UNL     1     -35.141  21.333   9.514  1.00  0.00    -0.031 C 
BRANCH  15  16
ATOM     16  C   UNL     1     -34.751  22.757   9.222  1.00  0.00     0.027 C 
BRANCH  16  17
ATOM     17  C   UNL     1     -35.570  23.492   8.154  1.00  0.00     0.004 C 
BRANCH  17  18
ATOM     18  C   UNL     1     -34.657  24.151   7.116  1.00  0.00     0.000 C 
BRANCH  18  19
ATOM     19  C   UNL     1     -33.179  24.136   7.512  1.00  0.00    -0.003 C 
ATOM     20  C   UNL     1     -32.253  23.694   6.389  1.00  0.00     0.004 C 
ENDBRANCH  18  19
ENDBRANCH  17  18
ENDBRANCH  16  17
ENDBRANCH  15  16
ENDBRANCH  13  14
ENDBRANCH  12  13
ENDBRANCH   1  11
TORSDOF 14
ENDMDL
MODEL 12
REMARK VINA RESULT:    -6.074      3.082      4.994
REMARK INTER + INTRA:         -13.980
REMARK INTER:                 -11.296
REMARK INTRA:                  -2.684
REMARK UNBOUND:                -2.934
REMARK SMILES CCCCC/C=C\C/C=C\CCCCCCCC(=O)[O-]
REMARK SMILES IDX 11 1 12 2 13 3 14 4 15 5 16 6 17 7 18 8 19 9 20 10 10 11
REMARK SMILES IDX 9 12 8 13 7 14 6 15 5 16 4 17 3 18 2 19 1 20
REMARK H PARENT
REMARK INDEX MAP 8 1 6 2 4 3 3 4 5 5 7 6 9 7 18 8 2 9 1 10 12 11 15 12 16 13
REMARK INDEX MAP 19 14 17 15 13 16 10 17 11 18 14 19 20 20
ROOT
ATOM      1  C   UNL     1     -32.526  23.037   9.301  1.00  0.00     0.027 C 
ENDROOT
BRANCH   1   2
ATOM      2  C   UNL     1     -33.876  22.997  10.027  1.00  0.00     0.004 C 
BRANCH   2   3
ATOM      3  C   UNL     1     -34.986  22.333   9.205  1.00  0.00     0.000 C 
BRANCH   3   4
ATOM      4  C   UNL     1     -35.837  23.334   8.415  1.00  0.00     0.000 C 
BRANCH   4   5
ATOM      5  C   UNL     1     -36.697  22.678   7.333  1.00  0.00     0.000 C 
BRANCH   5   6
ATOM      6  C   UNL     1     -36.901  21.185   7.618  1.00  0.00     0.006 C 
BRANCH   6   7
ATOM      7  C   UNL     1     -37.485  20.437   6.420  1.00  0.00     0.053 C 
BRANCH   7   8
ATOM      8  C   UNL     1     -38.979  20.606   6.285  1.00  0.00     0.041 C 
ATOM      9  O   UNL     1     -39.588  20.817   5.248  1.00  0.00    -0.550 OA
ATOM     10  O   UNL     1     -39.576  20.462   7.495  1.00  0.00    -0.550 OA
ENDBRANCH   7   8
ENDBRANCH   6   7
ENDBRANCH   5   6
ENDBRANCH   4   5
ENDBRANCH   3   4
ENDBRANCH   2   3
ENDBRANCH   1   2
BRANCH   1  11
ATOM     11  C   UNL     1     -32.092  24.429   8.941  1.00  0.00    -0.031 C 
ATOM     12  C   UNL     1     -32.215  24.953   7.713  1.00  0.00    -0.027 C 
BRANCH  12  13
ATOM     13  C   UNL     1     -32.804  24.215   6.547  1.00  0.00     0.054 C 
BRANCH  13  14
ATOM     14  C   UNL     1     -31.864  23.165   6.028  1.00  0.00    -0.027 C 
ATOM     15  C   UNL     1     -32.229  21.895   5.792  1.00  0.00    -0.031 C 
BRANCH  15  16
ATOM     16  C   UNL     1     -33.590  21.283   5.991  1.00  0.00     0.027 C 
BRANCH  16  17
ATOM     17  C   UNL     1     -33.650  19.755   6.112  1.00  0.00     0.004 C 
BRANCH  17  18
ATOM     18  C   UNL     1     -33.637  19.317   7.580  1.00  0.00     0.000 C 
BRANCH  18  19
ATOM     19  C   UNL     1     -32.249  18.915   8.080  1.00  0.00    -0.003 C 
ATOM     20  C   UNL     1     -31.394  18.235   7.021  1.00  0.00     0.004 C 
ENDBRANCH  18  19
ENDBRANCH  17  18
ENDBRANCH  16  17
ENDBRANCH  15  16
ENDBRANCH  13  14
ENDBRANCH  12  13
ENDBRANCH   1  11
TORSDOF 14
ENDMDL
MODEL 13
REMARK VINA RESULT:    -6.057      2.936      3.817
REMARK INTER + INTRA:         -13.947
REMARK INTER:                 -11.417
REMARK INTRA:                  -2.530
REMARK UNBOUND:                -2.934
REMARK SMILES CCCCC/C=C\C/C=C\CCCCCCCC(=O)[O-]
REMARK SMILES IDX 11 1 12 2 13 3 14 4 15 5 16 6 17 7 18 8 19 9 20 10 10 11
REMARK SMILES IDX 9 12 8 13 7 14 6 15 5 16 4 17 3 18 2 19 1 20
REMARK H PARENT
REMARK INDEX MAP 8 1 6 2 4 3 3 4 5 5 7 6 9 7 18 8 2 9 1 10 12 11 15 12 16 13
REMARK INDEX MAP 19 14 17 15 13 16 10 17 11 18 14 19 20 20
ROOT
ATOM      1  C   UNL     1     -31.955  21.443   7.645  1.00  0.00     0.027 C 
ENDROOT
BRANCH   1   2
ATOM      2  C   UNL     1     -32.075  19.975   7.221  1.00  0.00     0.004 C 
BRANCH   2   3
ATOM      3  C   UNL     1     -32.787  19.789   5.877  1.00  0.00     0.000 C 
BRANCH   3   4
ATOM      4  C   UNL     1     -34.272  20.165   5.920  1.00  0.00     0.000 C 
BRANCH   4   5
ATOM      5  C   UNL     1     -34.761  20.851   4.642  1.00  0.00     0.000 C 
BRANCH   5   6
ATOM      6  C   UNL     1     -36.152  21.466   4.843  1.00  0.00     0.006 C 
BRANCH   6   7
ATOM      7  C   UNL     1     -37.265  20.420   4.794  1.00  0.00     0.053 C 
BRANCH   7   8
ATOM      8  C   UNL     1     -38.287  20.590   5.892  1.00  0.00     0.041 C 
ATOM      9  O   UNL     1     -39.481  20.796   5.739  1.00  0.00    -0.550 OA
ATOM     10  O   UNL     1     -37.696  20.451   7.106  1.00  0.00    -0.550 OA
ENDBRANCH   7   8
ENDBRANCH   6   7
ENDBRANCH   5   6
ENDBRANCH   4   5
ENDBRANCH   3   4
ENDBRANCH   2   3
ENDBRANCH   1   2
BRANCH   1  11
ATOM     11  C   UNL     1     -31.721  22.374   6.489  1.00  0.00    -0.031 C 
ATOM     12  C   UNL     1     -32.244  23.606   6.407  1.00  0.00    -0.027 C 
BRANCH  12  13
ATOM     13  C   UNL     1     -33.127  24.208   7.460  1.00  0.00     0.054 C 
BRANCH  13  14
ATOM     14  C   UNL     1     -34.581  23.994   7.148  1.00  0.00    -0.027 C 
ATOM     15  C   UNL     1     -35.429  23.354   7.969  1.00  0.00    -0.031 C 
BRANCH  15  16
ATOM     16  C   UNL     1     -35.117  22.744   9.309  1.00  0.00     0.027 C 
BRANCH  16  17
ATOM     17  C   UNL     1     -35.010  21.215   9.364  1.00  0.00     0.004 C 
BRANCH  17  18
ATOM     18  C   UNL     1     -34.697  20.734  10.784  1.00  0.00     0.000 C 
BRANCH  18  19
ATOM     19  C   UNL     1     -34.176  19.297  10.837  1.00  0.00    -0.003 C 
ATOM     20  C   UNL     1     -34.308  18.652  12.208  1.00  0.00     0.004 C 
ENDBRANCH  18  19
ENDBRANCH  17  18
ENDBRANCH  16  17
ENDBRANCH  15  16
ENDBRANCH  13  14
ENDBRANCH  12  13
ENDBRANCH   1  11
TORSDOF 14
ENDMDL
MODEL 14
REMARK VINA RESULT:    -5.949      2.820      5.064
REMARK INTER + INTRA:         -13.752
REMARK INTER:                 -10.946
REMARK INTRA:                  -2.807
REMARK UNBOUND:                -2.934
REMARK SMILES CCCCC/C=C\C/C=C\CCCCCCCC(=O)[O-]
REMARK SMILES IDX 11 1 12 2 13 3 14 4 15 5 16 6 17 7 18 8 19 9 20 10 10 11
REMARK SMILES IDX 9 12 8 13 7 14 6 15 5 16 4 17 3 18 2 19 1 20
REMARK H PARENT
REMARK INDEX MAP 8 1 6 2 4 3 3 4 5 5 7 6 9 7 18 8 2 9 1 10 12 11 15 12 16 13
REMARK INDEX MAP 19 14 17 15 13 16 10 17 11 18 14 19 20 20
ROOT
ATOM      1  C   UNL     1     -32.972  22.866   8.310  1.00  0.00     0.027 C 
ENDROOT
BRANCH   1   2
ATOM      2  C   UNL     1     -33.427  24.031   7.424  1.00  0.00     0.004 C 
BRANCH   2   3
ATOM      3  C   UNL     1     -34.834  23.840   6.847  1.00  0.00     0.000 C 
BRANCH   3   4
ATOM      4  C   UNL     1     -35.939  23.914   7.906  1.00  0.00     0.000 C 
BRANCH   4   5
ATOM      5  C   UNL     1     -37.133  23.006   7.601  1.00  0.00     0.000 C 
BRANCH   5   6
ATOM      6  C   UNL     1     -36.670  21.603   7.188  1.00  0.00     0.006 C 
BRANCH   6   7
ATOM      7  C   UNL     1     -37.818  20.595   7.158  1.00  0.00     0.053 C 
BRANCH   7   8
ATOM      8  C   UNL     1     -38.400  20.399   5.779  1.00  0.00     0.041 C 
ATOM      9  O   UNL     1     -39.586  20.307   5.505  1.00  0.00    -0.550 OA
ATOM     10  O   UNL     1     -37.407  20.367   4.853  1.00  0.00    -0.550 OA
ENDBRANCH   7   8
ENDBRANCH   6   7
ENDBRANCH   5   6
ENDBRANCH   4   5
ENDBRANCH   3   4
ENDBRANCH   2   3
ENDBRANCH   1   2
BRANCH   1  11
ATOM     11  C   UNL     1     -32.912  23.223   9.769  1.00  0.00    -0.031 C 
ATOM     12  C   UNL     1     -33.736  22.710  10.695  1.00  0.00    -0.027 C 
BRANCH  12  13
ATOM     13  C   UNL     1     -34.817  21.716  10.390  1.00  0.00     0.054 C 
BRANCH  13  14
ATOM     14  C   UNL     1     -34.467  20.347  10.899  1.00  0.00    -0.027 C 
ATOM     15  C   UNL     1     -34.143  19.319  10.099  1.00  0.00    -0.031 C 
BRANCH  15  16
ATOM     16  C   UNL     1     -34.068  19.319   8.596  1.00  0.00     0.027 C 
BRANCH  16  17
ATOM     17  C   UNL     1     -32.727  18.915   7.971  1.00  0.00     0.004 C 
BRANCH  17  18
ATOM     18  C   UNL     1     -32.460  19.699   6.683  1.00  0.00     0.000 C 
BRANCH  18  19
ATOM     19  C   UNL     1     -33.737  20.081   5.931  1.00  0.00    -0.003 C 
ATOM     20  C   UNL     1     -33.475  20.727   4.579  1.00  0.00     0.004 C 
ENDBRANCH  18  19
ENDBRANCH  17  18
ENDBRANCH  16  17
ENDBRANCH  15  16
ENDBRANCH  13  14
ENDBRANCH  12  13
ENDBRANCH   1  11
TORSDOF 14
ENDMDL
MODEL 15
REMARK VINA RESULT:    -5.946      2.366      5.282
REMARK INTER + INTRA:         -13.747
REMARK INTER:                 -11.334
REMARK INTRA:                  -2.412
REMARK UNBOUND:                -2.934
REMARK SMILES CCCCC/C=C\C/C=C\CCCCCCCC(=O)[O-]
REMARK SMILES IDX 11 1 12 2 13 3 14 4 15 5 16 6 17 7 18 8 19 9 20 10 10 11
REMARK SMILES IDX 9 12 8 13 7 14 6 15 5 16 4 17 3 18 2 19 1 20
REMARK H PARENT
REMARK INDEX MAP 8 1 6 2 4 3 3 4 5 5 7 6 9 7 18 8 2 9 1 10 12 11 15 12 16 13
REMARK INDEX MAP 19 14 17 15 13 16 10 17 11 18 14 19 20 20
ROOT
ATOM      1  C   UNL     1     -33.829  18.913   8.347  1.00  0.00     0.027 C 
ENDROOT
BRANCH   1   2
ATOM      2  C   UNL     1     -34.283  20.150   9.130  1.00  0.00     0.004 C 
BRANCH   2   3
ATOM      3  C   UNL     1     -34.285  21.432   8.289  1.00  0.00     0.000 C 
BRANCH   3   4
ATOM      4  C   UNL     1     -34.899  22.633   9.017  1.00  0.00     0.000 C 
BRANCH   4   5
ATOM      5  C   UNL     1     -35.562  23.639   8.073  1.00  0.00     0.000 C 
BRANCH   5   6
ATOM      6  C   UNL     1     -34.637  23.993   6.903  1.00  0.00     0.006 C 
BRANCH   6   7
ATOM      7  C   UNL     1     -33.478  24.895   7.327  1.00  0.00     0.053 C 
BRANCH   7   8
ATOM      8  C   UNL     1     -32.143  24.191   7.316  1.00  0.00     0.041 C 
ATOM      9  O   UNL     1     -31.284  24.264   8.181  1.00  0.00    -0.550 OA
ATOM     10  O   UNL     1     -32.030  23.421   6.204  1.00  0.00    -0.550 OA
ENDBRANCH   7   8
ENDBRANCH   6   7
ENDBRANCH   5   6
ENDBRANCH   4   5
ENDBRANCH   3   4
ENDBRANCH   2   3
ENDBRANCH   1   2
BRANCH   1  11
ATOM     11  C   UNL     1     -32.347  18.882   8.102  1.00  0.00    -0.031 C 
ATOM     12  C   UNL     1     -31.797  18.720   6.889  1.00  0.00    -0.027 C 
BRANCH  12  13
ATOM     13  C   UNL     1     -32.593  18.551   5.629  1.00  0.00     0.054 C 
BRANCH  13  14
ATOM     14  C   UNL     1     -32.544  19.787   4.776  1.00  0.00    -0.027 C 
ATOM     15  C   UNL     1     -33.596  20.600   4.590  1.00  0.00    -0.031 C 
BRANCH  15  16
ATOM     16  C   UNL     1     -34.979  20.451   5.164  1.00  0.00     0.027 C 
BRANCH  16  17
ATOM     17  C   UNL     1     -36.154  20.641   4.196  1.00  0.00     0.004 C 
BRANCH  17  18
ATOM     18  C   UNL     1     -37.495  20.541   4.929  1.00  0.00     0.000 C 
BRANCH  18  19
ATOM     19  C   UNL     1     -37.352  20.521   6.453  1.00  0.00    -0.003 C 
ATOM     20  C   UNL     1     -38.391  21.369   7.170  1.00  0.00     0.004 C 
ENDBRANCH  18  19
ENDBRANCH  17  18
ENDBRANCH  16  17
ENDBRANCH  15  16
ENDBRANCH  13  14
ENDBRANCH  12  13
ENDBRANCH   1  11
TORSDOF 14
ENDMDL
MODEL 16
REMARK VINA RESULT:    -5.943      3.199      5.112
REMARK INTER + INTRA:         -13.741
REMARK INTER:                 -11.138
REMARK INTRA:                  -2.602
REMARK UNBOUND:                -2.934
REMARK SMILES CCCCC/C=C\C/C=C\CCCCCCCC(=O)[O-]
REMARK SMILES IDX 11 1 12 2 13 3 14 4 15 5 16 6 17 7 18 8 19 9 20 10 10 11
REMARK SMILES IDX 9 12 8 13 7 14 6 15 5 16 4 17 3 18 2 19 1 20
REMARK H PARENT
REMARK INDEX MAP 8 1 6 2 4 3 3 4 5 5 7 6 9 7 18 8 2 9 1 10 12 11 15 12 16 13
REMARK INDEX MAP 19 14 17 15 13 16 10 17 11 18 14 19 20 20
ROOT
ATOM      1  C   UNL     1     -32.883  24.525   7.721  1.00  0.00     0.027 C 
ENDROOT
BRANCH   1   2
ATOM      2  C   UNL     1     -34.336  24.463   7.236  1.00  0.00     0.004 C 
BRANCH   2   3
ATOM      3  C   UNL     1     -35.287  23.820   8.250  1.00  0.00     0.000 C 
BRANCH   3   4
ATOM      4  C   UNL     1     -36.541  23.217   7.608  1.00  0.00     0.000 C 
BRANCH   4   5
ATOM      5  C   UNL     1     -36.267  21.920   6.842  1.00  0.00     0.000 C 
BRANCH   5   6
ATOM      6  C   UNL     1     -37.266  20.825   7.233  1.00  0.00     0.006 C 
BRANCH   6   7
ATOM      7  C   UNL     1     -38.531  20.856   6.375  1.00  0.00     0.053 C 
BRANCH   7   8
ATOM      8  C   UNL     1     -39.760  21.276   7.145  1.00  0.00     0.041 C 
ATOM      9  O   UNL     1     -40.137  22.422   7.330  1.00  0.00    -0.550 OA
ATOM     10  O   UNL     1     -40.425  20.181   7.594  1.00  0.00    -0.550 OA
ENDBRANCH   7   8
ENDBRANCH   6   7
ENDBRANCH   5   6
ENDBRANCH   4   5
ENDBRANCH   3   4
ENDBRANCH   2   3
ENDBRANCH   1   2
BRANCH   1  11
ATOM     11  C   UNL     1     -32.417  23.243   8.350  1.00  0.00    -0.031 C 
ATOM     12  C   UNL     1     -31.918  22.210   7.654  1.00  0.00    -0.027 C 
BRANCH  12  13
ATOM     13  C   UNL     1     -31.763  22.209   6.162  1.00  0.00     0.054 C 
BRANCH  13  14
ATOM     14  C   UNL     1     -32.896  21.486   5.491  1.00  0.00    -0.027 C 
ATOM     15  C   UNL     1     -33.067  20.156   5.552  1.00  0.00    -0.031 C 
BRANCH  15  16
ATOM     16  C   UNL     1     -32.200  19.156   6.269  1.00  0.00     0.027 C 
BRANCH  16  17
ATOM     17  C   UNL     1     -32.825  18.436   7.470  1.00  0.00     0.004 C 
BRANCH  17  18
ATOM     18  C   UNL     1     -34.023  19.216   8.019  1.00  0.00     0.000 C 
BRANCH  18  19
ATOM     19  C   UNL     1     -33.993  19.383   9.540  1.00  0.00    -0.003 C 
ATOM     20  C   UNL     1     -34.644  20.669  10.023  1.00  0.00     0.004 C 
ENDBRANCH  18  19
ENDBRANCH  17  18
ENDBRANCH  16  17
ENDBRANCH  15  16
ENDBRANCH  13  14
ENDBRANCH  12  13
ENDBRANCH   1  11
TORSDOF 14
ENDMDL
MODEL 17
REMARK VINA RESULT:    -5.932      3.224      5.632
REMARK INTER + INTRA:         -13.721
REMARK INTER:                 -10.958
REMARK INTRA:                  -2.763
REMARK UNBOUND:                -2.934
REMARK SMILES CCCCC/C=C\C/C=C\CCCCCCCC(=O)[O-]
REMARK SMILES IDX 11 1 12 2 13 3 14 4 15 5 16 6 17 7 18 8 19 9 20 10 10 11
REMARK SMILES IDX 9 12 8 13 7 14 6 15 5 16 4 17 3 18 2 19 1 20
REMARK H PARENT
REMARK INDEX MAP 8 1 6 2 4 3 3 4 5 5 7 6 9 7 18 8 2 9 1 10 12 11 15 12 16 13
REMARK INDEX MAP 19 14 17 15 13 16 10 17 11 18 14 19 20 20
ROOT
ATOM      1  C   UNL     1     -34.134  21.906   9.276  1.00  0.00     0.027 C 
ENDROOT
BRANCH   1   2
ATOM      2  C   UNL     1     -35.144  23.022   8.984  1.00  0.00     0.004 C 
BRANCH   2   3
ATOM      3  C   UNL     1     -36.219  22.617   7.970  1.00  0.00     0.000 C 
BRANCH   3   4
ATOM      4  C   UNL     1     -35.669  22.410   6.554  1.00  0.00     0.000 C 
BRANCH   4   5
ATOM      5  C   UNL     1     -36.177  21.130   5.887  1.00  0.00     0.000 C 
BRANCH   5   6
ATOM      6  C   UNL     1     -37.250  20.448   6.744  1.00  0.00     0.006 C 
BRANCH   6   7
ATOM      7  C   UNL     1     -38.643  20.550   6.126  1.00  0.00     0.053 C 
BRANCH   7   8
ATOM      8  C   UNL     1     -39.635  21.265   7.011  1.00  0.00     0.041 C 
ATOM      9  O   UNL     1     -40.097  22.380   6.821  1.00  0.00    -0.550 OA
ATOM     10  O   UNL     1     -39.978  20.476   8.061  1.00  0.00    -0.550 OA
ENDBRANCH   7   8
ENDBRANCH   6   7
ENDBRANCH   5   6
ENDBRANCH   4   5
ENDBRANCH   3   4
ENDBRANCH   2   3
ENDBRANCH   1   2
BRANCH   1  11
ATOM     11  C   UNL     1     -34.782  20.570   9.506  1.00  0.00    -0.031 C 
ATOM     12  C   UNL     1     -34.232  19.403   9.138  1.00  0.00    -0.027 C 
BRANCH  12  13
ATOM     13  C   UNL     1     -32.903  19.288   8.452  1.00  0.00     0.054 C 
BRANCH  13  14
ATOM     14  C   UNL     1     -33.041  19.404   6.960  1.00  0.00    -0.027 C 
ATOM     15  C   UNL     1     -32.535  20.422   6.247  1.00  0.00    -0.031 C 
BRANCH  15  16
ATOM     16  C   UNL     1     -31.762  21.606   6.764  1.00  0.00     0.027 C 
BRANCH  16  17
ATOM     17  C   UNL     1     -31.787  22.876   5.906  1.00  0.00     0.004 C 
BRANCH  17  18
ATOM     18  C   UNL     1     -32.638  23.968   6.560  1.00  0.00     0.000 C 
BRANCH  18  19
ATOM     19  C   UNL     1     -31.816  24.982   7.359  1.00  0.00    -0.003 C 
ATOM     20  C   UNL     1     -31.790  24.701   8.853  1.00  0.00     0.004 C 
ENDBRANCH  18  19
ENDBRANCH  17  18
ENDBRANCH  16  17
ENDBRANCH  15  16
ENDBRANCH  13  14
ENDBRANCH  12  13
ENDBRANCH   1  11
TORSDOF 14
ENDMDL
MODEL 18
REMARK VINA RESULT:    -5.928      2.331      5.304
REMARK INTER + INTRA:         -13.714
REMARK INTER:                 -11.602
REMARK INTRA:                  -2.111
REMARK UNBOUND:                -2.934
REMARK SMILES CCCCC/C=C\C/C=C\CCCCCCCC(=O)[O-]
REMARK SMILES IDX 11 1 12 2 13 3 14 4 15 5 16 6 17 7 18 8 19 9 20 10 10 11
REMARK SMILES IDX 9 12 8 13 7 14 6 15 5 16 4 17 3 18 2 19 1 20
REMARK H PARENT
REMARK INDEX MAP 8 1 6 2 4 3 3 4 5 5 7 6 9 7 18 8 2 9 1 10 12 11 15 12 16 13
REMARK INDEX MAP 19 14 17 15 13 16 10 17 11 18 14 19 20 20
ROOT
ATOM      1  C   UNL     1     -32.680  19.185   8.166  1.00  0.00     0.027 C 
ENDROOT
BRANCH   1   2
ATOM      2  C   UNL     1     -34.098  19.339   8.728  1.00  0.00     0.004 C 
BRANCH   2   3
ATOM      3  C   UNL     1     -34.154  19.278  10.258  1.00  0.00     0.000 C 
BRANCH   3   4
ATOM      4  C   UNL     1     -34.555  20.609  10.904  1.00  0.00     0.000 C 
BRANCH   4   5
ATOM      5  C   UNL     1     -34.834  21.717   9.886  1.00  0.00     0.000 C 
BRANCH   5   6
ATOM      6  C   UNL     1     -33.787  22.833   9.981  1.00  0.00     0.006 C 
BRANCH   6   7
ATOM      7  C   UNL     1     -33.476  23.458   8.622  1.00  0.00     0.053 C 
BRANCH   7   8
ATOM      8  C   UNL     1     -32.015  23.377   8.251  1.00  0.00     0.041 C 
ATOM      9  O   UNL     1     -31.480  22.475   7.625  1.00  0.00    -0.550 OA
ATOM     10  O   UNL     1     -31.360  24.482   8.690  1.00  0.00    -0.550 OA
ENDBRANCH   7   8
ENDBRANCH   6   7
ENDBRANCH   5   6
ENDBRANCH   4   5
ENDBRANCH   3   4
ENDBRANCH   2   3
ENDBRANCH   1   2
BRANCH   1  11
ATOM     11  C   UNL     1     -32.613  18.272   6.975  1.00  0.00    -0.031 C 
ATOM     12  C   UNL     1     -32.608  18.705   5.705  1.00  0.00    -0.027 C 
BRANCH  12  13
ATOM     13  C   UNL     1     -32.667  20.153   5.318  1.00  0.00     0.054 C 
BRANCH  13  14
ATOM     14  C   UNL     1     -33.820  20.431   4.396  1.00  0.00    -0.027 C 
ATOM     15  C   UNL     1     -34.920  21.105   4.767  1.00  0.00    -0.031 C 
BRANCH  15  16
ATOM     16  C   UNL     1     -35.217  21.695   6.119  1.00  0.00     0.027 C 
BRANCH  16  17
ATOM     17  C   UNL     1     -36.616  21.441   6.692  1.00  0.00     0.004 C 
BRANCH  17  18
ATOM     18  C   UNL     1     -37.410  20.478   5.804  1.00  0.00     0.000 C 
BRANCH  18  19
ATOM     19  C   UNL     1     -38.925  20.594   5.987  1.00  0.00    -0.003 C 
ATOM     20  C   UNL     1     -39.405  20.159   7.363  1.00  0.00     0.004 C 
ENDBRANCH  18  19
ENDBRANCH  17  18
ENDBRANCH  16  17
ENDBRANCH  15  16
ENDBRANCH  13  14
ENDBRANCH  12  13
ENDBRANCH   1  11
TORSDOF 14
ENDMDL
MODEL 19
REMARK VINA RESULT:    -5.927      1.964      4.520
REMARK INTER + INTRA:         -13.711
REMARK INTER:                 -11.298
REMARK INTRA:                  -2.413
REMARK UNBOUND:                -2.934
REMARK SMILES CCCCC/C=C\C/C=C\CCCCCCCC(=O)[O-]
REMARK SMILES IDX 11 1 12 2 13 3 14 4 15 5 16 6 17 7 18 8 19 9 20 10 10 11
REMARK SMILES IDX 9 12 8 13 7 14 6 15 5 16 4 17 3 18 2 19 1 20
REMARK H PARENT
REMARK INDEX MAP 8 1 6 2 4 3 3 4 5 5 7 6 9 7 18 8 2 9 1 10 12 11 15 12 16 13
REMARK INDEX MAP 19 14 17 15 13 16 10 17 11 18 14 19 20 20
ROOT
ATOM      1  C   UNL     1     -32.306  24.405   6.891  1.00  0.00     0.027 C 
ENDROOT
BRANCH   1   2
ATOM      2  C   UNL     1     -33.602  24.871   7.564  1.00  0.00     0.004 C 
BRANCH   2   3
ATOM      3  C   UNL     1     -34.841  24.104   7.089  1.00  0.00     0.000 C 
BRANCH   3   4
ATOM      4  C   UNL     1     -35.634  23.465   8.234  1.00  0.00     0.000 C 
BRANCH   4   5
ATOM      5  C   UNL     1     -35.173  22.046   8.574  1.00  0.00     0.000 C 
BRANCH   5   6
ATOM      6  C   UNL     1     -34.333  22.029   9.857  1.00  0.00     0.006 C 
BRANCH   6   7
ATOM      7  C   UNL     1     -34.807  20.971  10.852  1.00  0.00     0.053 C 
BRANCH   7   8
ATOM      8  C   UNL     1     -34.279  19.590  10.547  1.00  0.00     0.041 C 
ATOM      9  O   UNL     1     -33.832  19.211   9.475  1.00  0.00    -0.550 OA
ATOM     10  O   UNL     1     -34.337  18.812  11.657  1.00  0.00    -0.550 OA
ENDBRANCH   7   8
ENDBRANCH   6   7
ENDBRANCH   5   6
ENDBRANCH   4   5
ENDBRANCH   3   4
ENDBRANCH   2   3
ENDBRANCH   1   2
BRANCH   1  11
ATOM     11  C   UNL     1     -31.713  23.184   7.536  1.00  0.00    -0.031 C 
ATOM     12  C   UNL     1     -31.753  21.959   6.990  1.00  0.00    -0.027 C 
BRANCH  12  13
ATOM     13  C   UNL     1     -32.393  21.657   5.668  1.00  0.00     0.054 C 
BRANCH  13  14
ATOM     14  C   UNL     1     -33.032  20.298   5.663  1.00  0.00    -0.027 C 
ATOM     15  C   UNL     1     -34.334  20.092   5.410  1.00  0.00    -0.031 C 
BRANCH  15  16
ATOM     16  C   UNL     1     -35.379  21.129   5.096  1.00  0.00     0.027 C 
BRANCH  16  17
ATOM     17  C   UNL     1     -36.516  20.703   4.159  1.00  0.00     0.004 C 
BRANCH  17  18
ATOM     18  C   UNL     1     -37.837  20.566   4.921  1.00  0.00     0.000 C 
BRANCH  18  19
ATOM     19  C   UNL     1     -37.726  20.945   6.400  1.00  0.00    -0.003 C 
ATOM     20  C   UNL     1     -39.044  21.391   7.013  1.00  0.00     0.004 C 
ENDBRANCH  18  19
ENDBRANCH  17  18
ENDBRANCH  16  17
ENDBRANCH  15  16
ENDBRANCH  13  14
ENDBRANCH  12  13
ENDBRANCH   1  11
TORSDOF 14
ENDMDL
MODEL 20
REMARK VINA RESULT:    -5.910      2.272      3.680
REMARK INTER + INTRA:         -13.680
REMARK INTER:                 -11.463
REMARK INTRA:                  -2.217
REMARK UNBOUND:                -2.934
REMARK SMILES CCCCC/C=C\C/C=C\CCCCCCCC(=O)[O-]
REMARK SMILES IDX 11 1 12 2 13 3 14 4 15 5 16 6 17 7 18 8 19 9 20 10 10 11
REMARK SMILES IDX 9 12 8 13 7 14 6 15 5 16 4 17 3 18 2 19 1 20
REMARK H PARENT
REMARK INDEX MAP 8 1 6 2 4 3 3 4 5 5 7 6 9 7 18 8 2 9 1 10 12 11 15 12 16 13
REMARK INDEX MAP 19 14 17 15 13 16 10 17 11 18 14 19 20 20
ROOT
ATOM      1  C   UNL     1     -34.604  22.977   9.026  1.00  0.00     0.027 C 
ENDROOT
BRANCH   1   2
ATOM      2  C   UNL     1     -33.144  23.071   9.484  1.00  0.00     0.004 C 
BRANCH   2   3
ATOM      3  C   UNL     1     -32.166  23.357   8.339  1.00  0.00     0.000 C 
BRANCH   3   4
ATOM      4  C   UNL     1     -32.777  23.135   6.951  1.00  0.00     0.000 C 
BRANCH   4   5
ATOM      5  C   UNL     1     -31.919  22.247   6.046  1.00  0.00     0.000 C 
BRANCH   5   6
ATOM      6  C   UNL     1     -32.450  20.808   6.020  1.00  0.00     0.006 C 
BRANCH   6   7
ATOM      7  C   UNL     1     -32.090  20.031   7.285  1.00  0.00     0.053 C 
BRANCH   7   8
ATOM      8  C   UNL     1     -31.695  18.600   7.010  1.00  0.00     0.041 C 
ATOM      9  O   UNL     1     -31.180  17.830   7.806  1.00  0.00    -0.550 OA
ATOM     10  O   UNL     1     -32.023  18.261   5.737  1.00  0.00    -0.550 OA
ENDBRANCH   7   8
ENDBRANCH   6   7
ENDBRANCH   5   6
ENDBRANCH   4   5
ENDBRANCH   3   4
ENDBRANCH   2   3
ENDBRANCH   1   2
BRANCH   1  11
ATOM     11  C   UNL     1     -35.107  21.564   8.944  1.00  0.00    -0.031 C 
ATOM     12  C   UNL     1     -35.774  21.071   7.890  1.00  0.00    -0.027 C 
BRANCH  12  13
ATOM     13  C   UNL     1     -36.100  21.869   6.662  1.00  0.00     0.054 C 
BRANCH  13  14
ATOM     14  C   UNL     1     -36.013  21.029   5.420  1.00  0.00    -0.027 C 
ATOM     15  C   UNL     1     -37.072  20.428   4.856  1.00  0.00    -0.031 C 
BRANCH  15  16
ATOM     16  C   UNL     1     -38.501  20.464   5.328  1.00  0.00     0.027 C 
BRANCH  16  17
ATOM     17  C   UNL     1     -38.832  19.660   6.592  1.00  0.00     0.004 C 
BRANCH  17  18
ATOM     18  C   UNL     1     -39.606  20.514   7.601  1.00  0.00     0.000 C 
BRANCH  18  19
ATOM     19  C   UNL     1     -39.588  22.008   7.271  1.00  0.00    -0.003 C 
ATOM     20  C   UNL     1     -40.423  22.850   8.223  1.00  0.00     0.004 C 
ENDBRANCH  18  19
ENDBRANCH  17  18
ENDBRANCH  16  17
ENDBRANCH  15  16
ENDBRANCH  13  14
ENDBRANCH  12  13
ENDBRANCH   1  11
TORSDOF 14
ENDMDL
