MODEL 1
REMARK VINA RESULT:    -6.055      0.000      0.000
REMARK INTER + INTRA:         -13.030
REMARK INTER:                 -11.011
REMARK INTRA:                  -2.019
REMARK UNBOUND:                -2.019
REMARK SMILES CCCCCCCCCCCCCCCC(=O)[O-]
REMARK SMILES IDX 9 1 10 2 11 3 12 4 13 5 14 6 15 7 16 8 17 9 18 10 8 11 7 12
REMARK SMILES IDX 6 13 5 14 4 15 3 16 2 17 1 18
REMARK H PARENT
REMARK INDEX MAP 4 1 6 2 8 3 10 4 12 5 14 6 16 7 18 8 2 9 1 10 3 11 5 12 7 13
REMARK INDEX MAP 9 14 11 15 13 16 15 17 17 18
ROOT
ATOM      1  C   UNL     1     -31.864  24.367   7.164  1.00  0.00     0.000 C 
ENDROOT
BRANCH   1   2
ATOM      2  C   UNL     1     -31.939  22.890   6.763  1.00  0.00     0.000 C 
BRANCH   2   3
ATOM      3  C   UNL     1     -31.798  21.878   7.906  1.00  0.00     0.000 C 
BRANCH   3   4
ATOM      4  C   UNL     1     -31.275  20.512   7.453  1.00  0.00     0.000 C 
BRANCH   4   5
ATOM      5  C   UNL     1     -32.406  19.488   7.351  1.00  0.00     0.000 C 
BRANCH   5   6
ATOM      6  C   UNL     1     -33.012  19.375   5.947  1.00  0.00     0.006 C 
BRANCH   6   7
ATOM      7  C   UNL     1     -34.304  20.168   5.747  1.00  0.00     0.053 C 
BRANCH   7   8
ATOM      8  C   UNL     1     -34.362  20.951   4.459  1.00  0.00     0.041 C 
ATOM      9  O   UNL     1     -33.452  20.988   3.641  1.00  0.00    -0.550 OA
ATOM     10  O   UNL     1     -35.519  21.643   4.315  1.00  0.00    -0.550 OA
ENDBRANCH   7   8
ENDBRANCH   6   7
ENDBRANCH   5   6
ENDBRANCH   4   5
ENDBRANCH   3   4
ENDBRANCH   2   3
ENDBRANCH   1   2
BRANCH   1  11
ATOM     11  C   UNL     1     -33.233  25.042   7.276  1.00  0.00     0.000 C 
BRANCH  11  12
ATOM     12  C   UNL     1     -34.331  24.161   6.676  1.00  0.00    -0.000 C 
BRANCH  12  13
ATOM     13  C   UNL     1     -35.497  23.989   7.651  1.00  0.00    -0.000 C 
BRANCH  13  14
ATOM     14  C   UNL     1     -35.635  22.563   8.193  1.00  0.00    -0.000 C 
BRANCH  14  15
ATOM     15  C   UNL     1     -34.931  22.280   9.526  1.00  0.00    -0.000 C 
BRANCH  15  16
ATOM     16  C   UNL     1     -34.814  20.788   9.850  1.00  0.00    -0.000 C 
BRANCH  16  17
ATOM     17  C   UNL     1     -34.539  20.510  11.331  1.00  0.00    -0.003 C 
ATOM     18  C   UNL     1     -34.288  19.043  11.639  1.00  0.00     0.004 C 
ENDBRANCH  16  17
ENDBRANCH  15  16
ENDBRANCH  14  15
ENDBRANCH  13  14
ENDBRANCH  12  13
ENDBRANCH  11  12
ENDBRANCH   1  11
TORSDOF 14
ENDMDL
MODEL 2
REMARK VINA RESULT:    -5.969      2.128      4.478
REMARK INTER + INTRA:         -12.872
REMARK INTER:                 -10.862
REMARK INTRA:                  -2.011
REMARK UNBOUND:                -2.019
REMARK SMILES CCCCCCCCCCCCCCCC(=O)[O-]
REMARK SMILES IDX 9 1 10 2 11 3 12 4 13 5 14 6 15 7 16 8 17 9 18 10 8 11 7 12
REMARK SMILES IDX 6 13 5 14 4 15 3 16 2 17 1 18
REMARK H PARENT
REMARK INDEX MAP 4 1 6 2 8 3 10 4 12 5 14 6 16 7 18 8 2 9 1 10 3 11 5 12 7 13
REMARK INDEX MAP 9 14 11 15 13 16 15 17 17 18
ROOT
ATOM      1  C   UNL     1     -37.161  21.949   7.252  1.00  0.00     0.000 C 
ENDROOT
BRANCH   1   2
ATOM      2  C   UNL     1     -36.649  20.684   6.556  1.00  0.00     0.000 C 
BRANCH   2   3
ATOM      3  C   UNL     1     -36.469  20.781   5.037  1.00  0.00     0.000 C 
BRANCH   3   4
ATOM      4  C   UNL     1     -35.111  21.350   4.617  1.00  0.00     0.000 C 
BRANCH   4   5
ATOM      5  C   UNL     1     -33.985  20.343   4.860  1.00  0.00     0.000 C 
BRANCH   5   6
ATOM      6  C   UNL     1     -32.797  20.921   5.638  1.00  0.00     0.006 C 
BRANCH   6   7
ATOM      7  C   UNL     1     -32.314  20.050   6.798  1.00  0.00     0.053 C 
BRANCH   7   8
ATOM      8  C   UNL     1     -32.341  18.568   6.517  1.00  0.00     0.041 C 
ATOM      9  O   UNL     1     -31.614  18.014   5.704  1.00  0.00    -0.550 OA
ATOM     10  O   UNL     1     -33.284  17.912   7.238  1.00  0.00    -0.550 OA
ENDBRANCH   7   8
ENDBRANCH   6   7
ENDBRANCH   5   6
ENDBRANCH   4   5
ENDBRANCH   3   4
ENDBRANCH   2   3
ENDBRANCH   1   2
BRANCH   1  11
ATOM     11  C   UNL     1     -36.072  22.725   7.995  1.00  0.00     0.000 C 
BRANCH  11  12
ATOM     12  C   UNL     1     -35.006  21.778   8.553  1.00  0.00    -0.000 C 
BRANCH  12  13
ATOM     13  C   UNL     1     -34.662  22.124  10.003  1.00  0.00    -0.000 C 
BRANCH  13  14
ATOM     14  C   UNL     1     -33.445  23.044  10.140  1.00  0.00    -0.000 C 
BRANCH  14  15
ATOM     15  C   UNL     1     -32.547  23.159   8.902  1.00  0.00    -0.000 C 
BRANCH  15  16
ATOM     16  C   UNL     1     -31.918  24.545   8.730  1.00  0.00    -0.000 C 
BRANCH  16  17
ATOM     17  C   UNL     1     -32.515  25.339   7.564  1.00  0.00    -0.003 C 
ATOM     18  C   UNL     1     -33.348  24.494   6.613  1.00  0.00     0.004 C 
ENDBRANCH  16  17
ENDBRANCH  15  16
ENDBRANCH  14  15
ENDBRANCH  13  14
ENDBRANCH  12  13
ENDBRANCH  11  12
ENDBRANCH   1  11
TORSDOF 14
ENDMDL
MODEL 3
REMARK VINA RESULT:    -5.964      2.523      4.911
REMARK INTER + INTRA:         -12.865
REMARK INTER:                 -10.544
REMARK INTRA:                  -2.321
REMARK UNBOUND:                -2.019
REMARK SMILES CCCCCCCCCCCCCCCC(=O)[O-]
REMARK SMILES IDX 9 1 10 2 11 3 12 4 13 5 14 6 15 7 16 8 17 9 18 10 8 11 7 12
REMARK SMILES IDX 6 13 5 14 4 15 3 16 2 17 1 18
REMARK H PARENT
REMARK INDEX MAP 4 1 6 2 8 3 10 4 12 5 14 6 16 7 18 8 2 9 1 10 3 11 5 12 7 13
REMARK INDEX MAP 9 14 11 15 13 16 15 17 17 18
ROOT
ATOM      1  C   UNL     1     -35.351  20.642   7.783  1.00  0.00     0.000 C 
ENDROOT
BRANCH   1   2
ATOM      2  C   UNL     1     -34.704  21.226   9.043  1.00  0.00     0.000 C 
BRANCH   2   3
ATOM      3  C   UNL     1     -34.719  22.755   9.157  1.00  0.00     0.000 C 
BRANCH   3   4
ATOM      4  C   UNL     1     -35.559  23.441   8.076  1.00  0.00     0.000 C 
BRANCH   4   5
ATOM      5  C   UNL     1     -34.676  24.177   7.067  1.00  0.00     0.000 C 
BRANCH   5   6
ATOM      6  C   UNL     1     -33.305  24.579   7.625  1.00  0.00     0.006 C 
BRANCH   6   7
ATOM      7  C   UNL     1     -32.133  24.305   6.684  1.00  0.00     0.053 C 
BRANCH   7   8
ATOM      8  C   UNL     1     -31.827  22.842   6.479  1.00  0.00     0.041 C 
ATOM      9  O   UNL     1     -31.407  22.103   7.359  1.00  0.00    -0.550 OA
ATOM     10  O   UNL     1     -32.034  22.434   5.203  1.00  0.00    -0.550 OA
ENDBRANCH   7   8
ENDBRANCH   6   7
ENDBRANCH   5   6
ENDBRANCH   4   5
ENDBRANCH   3   4
ENDBRANCH   2   3
ENDBRANCH   1   2
BRANCH   1  11
ATOM     11  C   UNL     1     -34.341  20.107   6.766  1.00  0.00     0.000 C 
BRANCH  11  12
ATOM     12  C   UNL     1     -34.757  20.466   5.337  1.00  0.00    -0.000 C 
BRANCH  12  13
ATOM     13  C   UNL     1     -36.105  21.189   5.319  1.00  0.00    -0.000 C 
BRANCH  13  14
ATOM     14  C   UNL     1     -37.180  20.460   4.507  1.00  0.00    -0.000 C 
BRANCH  14  15
ATOM     15  C   UNL     1     -38.594  20.471   5.100  1.00  0.00    -0.000 C 
BRANCH  15  16
ATOM     16  C   UNL     1     -38.708  19.706   6.421  1.00  0.00    -0.000 C 
BRANCH  16  17
ATOM     17  C   UNL     1     -39.069  20.601   7.611  1.00  0.00    -0.003 C 
ATOM     18  C   UNL     1     -39.220  22.069   7.244  1.00  0.00     0.004 C 
ENDBRANCH  16  17
ENDBRANCH  15  16
ENDBRANCH  14  15
ENDBRANCH  13  14
ENDBRANCH  12  13
ENDBRANCH  11  12
ENDBRANCH   1  11
TORSDOF 14
ENDMDL
MODEL 4
REMARK VINA RESULT:    -5.958      1.436      2.580
REMARK INTER + INTRA:         -12.853
REMARK INTER:                 -11.302
REMARK INTRA:                  -1.552
REMARK UNBOUND:                -2.019
REMARK SMILES CCCCCCCCCCCCCCCC(=O)[O-]
REMARK SMILES IDX 9 1 10 2 11 3 12 4 13 5 14 6 15 7 16 8 17 9 18 10 8 11 7 12
REMARK SMILES IDX 6 13 5 14 4 15 3 16 2 17 1 18
REMARK H PARENT
REMARK INDEX MAP 4 1 6 2 8 3 10 4 12 5 14 6 16 7 18 8 2 9 1 10 3 11 5 12 7 13
REMARK INDEX MAP 9 14 11 15 13 16 15 17 17 18
ROOT
ATOM      1  C   UNL     1     -33.666  24.167   6.912  1.00  0.00     0.000 C 
ENDROOT
BRANCH   1   2
ATOM      2  C   UNL     1     -35.176  24.322   7.118  1.00  0.00     0.000 C 
BRANCH   2   3
ATOM      3  C   UNL     1     -35.947  23.031   7.417  1.00  0.00     0.000 C 
BRANCH   3   4
ATOM      4  C   UNL     1     -35.735  21.935   6.370  1.00  0.00     0.000 C 
BRANCH   4   5
ATOM      5  C   UNL     1     -35.252  20.635   7.014  1.00  0.00     0.000 C 
BRANCH   5   6
ATOM      6  C   UNL     1     -33.749  20.381   6.841  1.00  0.00     0.006 C 
BRANCH   6   7
ATOM      7  C   UNL     1     -33.364  19.738   5.509  1.00  0.00     0.053 C 
BRANCH   7   8
ATOM      8  C   UNL     1     -32.978  20.721   4.431  1.00  0.00     0.041 C 
ATOM      9  O   UNL     1     -33.085  20.496   3.232  1.00  0.00    -0.550 OA
ATOM     10  O   UNL     1     -32.465  21.873   4.928  1.00  0.00    -0.550 OA
ENDBRANCH   7   8
ENDBRANCH   6   7
ENDBRANCH   5   6
ENDBRANCH   4   5
ENDBRANCH   3   4
ENDBRANCH   2   3
ENDBRANCH   1   2
BRANCH   1  11
ATOM     11  C   UNL     1     -32.832  25.187   7.691  1.00  0.00     0.000 C 
BRANCH  11  12
ATOM     12  C   UNL     1     -31.971  24.498   8.752  1.00  0.00    -0.000 C 
BRANCH  12  13
ATOM     13  C   UNL     1     -32.492  23.094   9.061  1.00  0.00    -0.000 C 
BRANCH  13  14
ATOM     14  C   UNL     1     -33.438  23.044  10.265  1.00  0.00    -0.000 C 
BRANCH  14  15
ATOM     15  C   UNL     1     -34.511  21.949  10.232  1.00  0.00    -0.000 C 
BRANCH  15  16
ATOM     16  C   UNL     1     -34.446  20.994  11.427  1.00  0.00    -0.000 C 
BRANCH  16  17
ATOM     17  C   UNL     1     -34.377  19.519  11.020  1.00  0.00    -0.003 C 
ATOM     18  C   UNL     1     -34.050  18.584  12.173  1.00  0.00     0.004 C 
ENDBRANCH  16  17
ENDBRANCH  15  16
ENDBRANCH  14  15
ENDBRANCH  13  14
ENDBRANCH  12  13
ENDBRANCH  11  12
ENDBRANCH   1  11
TORSDOF 14
ENDMDL
MODEL 5
REMARK VINA RESULT:    -5.954      2.527      4.835
REMARK INTER + INTRA:         -12.846
REMARK INTER:                 -11.090
REMARK INTRA:                  -1.757
REMARK UNBOUND:                -2.019
REMARK SMILES CCCCCCCCCCCCCCCC(=O)[O-]
REMARK SMILES IDX 9 1 10 2 11 3 12 4 13 5 14 6 15 7 16 8 17 9 18 10 8 11 7 12
REMARK SMILES IDX 6 13 5 14 4 15 3 16 2 17 1 18
REMARK H PARENT
REMARK INDEX MAP 4 1 6 2 8 3 10 4 12 5 14 6 16 7 18 8 2 9 1 10 3 11 5 12 7 13
REMARK INDEX MAP 9 14 11 15 13 16 15 17 17 18
ROOT
ATOM      1  C   UNL     1     -38.254  20.553   5.113  1.00  0.00     0.000 C 
ENDROOT
BRANCH   1   2
ATOM      2  C   UNL     1     -37.078  20.381   4.146  1.00  0.00     0.000 C 
BRANCH   2   3
ATOM      3  C   UNL     1     -35.827  21.210   4.458  1.00  0.00     0.000 C 
BRANCH   3   4
ATOM      4  C   UNL     1     -34.662  20.379   5.003  1.00  0.00     0.000 C 
BRANCH   4   5
ATOM      5  C   UNL     1     -33.346  21.155   4.939  1.00  0.00     0.000 C 
BRANCH   5   6
ATOM      6  C   UNL     1     -32.442  20.940   6.159  1.00  0.00     0.006 C 
BRANCH   6   7
ATOM      7  C   UNL     1     -32.822  19.739   7.025  1.00  0.00     0.053 C 
BRANCH   7   8
ATOM      8  C   UNL     1     -31.918  18.542   6.861  1.00  0.00     0.041 C 
ATOM      9  O   UNL     1     -31.297  18.024   7.781  1.00  0.00    -0.550 OA
ATOM     10  O   UNL     1     -31.835  18.116   5.577  1.00  0.00    -0.550 OA
ENDBRANCH   7   8
ENDBRANCH   6   7
ENDBRANCH   5   6
ENDBRANCH   4   5
ENDBRANCH   3   4
ENDBRANCH   2   3
ENDBRANCH   1   2
BRANCH   1  11
ATOM     11  C   UNL     1     -37.859  20.435   6.586  1.00  0.00     0.000 C 
BRANCH  11  12
ATOM     12  C   UNL     1     -37.780  21.814   7.246  1.00  0.00    -0.000 C 
BRANCH  12  13
ATOM     13  C   UNL     1     -36.409  22.044   7.885  1.00  0.00    -0.000 C 
BRANCH  13  14
ATOM     14  C   UNL     1     -35.839  23.441   7.621  1.00  0.00    -0.000 C 
BRANCH  14  15
ATOM     15  C   UNL     1     -34.329  23.602   7.833  1.00  0.00    -0.000 C 
BRANCH  15  16
ATOM     16  C   UNL     1     -33.674  24.578   6.851  1.00  0.00    -0.000 C 
BRANCH  16  17
ATOM     17  C   UNL     1     -32.244  24.962   7.241  1.00  0.00    -0.003 C 
ATOM     18  C   UNL     1     -31.883  24.594   8.672  1.00  0.00     0.004 C 
ENDBRANCH  16  17
ENDBRANCH  15  16
ENDBRANCH  14  15
ENDBRANCH  13  14
ENDBRANCH  12  13
ENDBRANCH  11  12
ENDBRANCH   1  11
TORSDOF 14
ENDMDL
MODEL 6
REMARK VINA RESULT:    -5.898      2.732      5.003
REMARK INTER + INTRA:         -12.744
REMARK INTER:                 -10.530
REMARK INTRA:                  -2.215
REMARK UNBOUND:                -2.019
REMARK SMILES CCCCCCCCCCCCCCCC(=O)[O-]
REMARK SMILES IDX 9 1 10 2 11 3 12 4 13 5 14 6 15 7 16 8 17 9 18 10 8 11 7 12
REMARK SMILES IDX 6 13 5 14 4 15 3 16 2 17 1 18
REMARK H PARENT
REMARK INDEX MAP 4 1 6 2 8 3 10 4 12 5 14 6 16 7 18 8 2 9 1 10 3 11 5 12 7 13
REMARK INDEX MAP 9 14 11 15 13 16 15 17 17 18
ROOT
ATOM      1  C   UNL     1     -33.084  19.875   7.385  1.00  0.00     0.000 C 
ENDROOT
BRANCH   1   2
ATOM      2  C   UNL     1     -33.643  20.254   6.010  1.00  0.00     0.000 C 
BRANCH   2   3
ATOM      3  C   UNL     1     -34.035  21.725   5.830  1.00  0.00     0.000 C 
BRANCH   3   4
ATOM      4  C   UNL     1     -35.512  22.005   6.123  1.00  0.00     0.000 C 
BRANCH   4   5
ATOM      5  C   UNL     1     -36.395  20.826   5.710  1.00  0.00     0.000 C 
BRANCH   5   6
ATOM      6  C   UNL     1     -37.484  20.483   6.734  1.00  0.00     0.006 C 
BRANCH   6   7
ATOM      7  C   UNL     1     -38.156  21.696   7.376  1.00  0.00     0.053 C 
BRANCH   7   8
ATOM      8  C   UNL     1     -39.664  21.666   7.339  1.00  0.00     0.041 C 
ATOM      9  O   UNL     1     -40.360  22.633   7.058  1.00  0.00    -0.550 OA
ATOM     10  O   UNL     1     -40.175  20.459   7.684  1.00  0.00    -0.550 OA
ENDBRANCH   7   8
ENDBRANCH   6   7
ENDBRANCH   5   6
ENDBRANCH   4   5
ENDBRANCH   3   4
ENDBRANCH   2   3
ENDBRANCH   1   2
BRANCH   1  11
ATOM     11  C   UNL     1     -34.099  19.166   8.285  1.00  0.00     0.000 C 
BRANCH  11  12
ATOM     12  C   UNL     1     -34.029  19.700   9.718  1.00  0.00    -0.000 C 
BRANCH  12  13
ATOM     13  C   UNL     1     -35.014  20.851   9.928  1.00  0.00    -0.000 C 
BRANCH  13  14
ATOM     14  C   UNL     1     -34.344  22.158  10.363  1.00  0.00    -0.000 C 
BRANCH  14  15
ATOM     15  C   UNL     1     -33.960  23.123   9.235  1.00  0.00    -0.000 C 
BRANCH  15  16
ATOM     16  C   UNL     1     -32.450  23.220   9.002  1.00  0.00    -0.000 C 
BRANCH  16  17
ATOM     17  C   UNL     1     -31.989  24.624   8.597  1.00  0.00    -0.003 C 
ATOM     18  C   UNL     1     -32.228  24.943   7.130  1.00  0.00     0.004 C 
ENDBRANCH  16  17
ENDBRANCH  15  16
ENDBRANCH  14  15
ENDBRANCH  13  14
ENDBRANCH  12  13
ENDBRANCH  11  12
ENDBRANCH   1  11
TORSDOF 14
ENDMDL
MODEL 7
REMARK VINA RESULT:    -5.898      2.274      2.997
REMARK INTER + INTRA:         -12.743
REMARK INTER:                 -10.560
REMARK INTRA:                  -2.183
REMARK UNBOUND:                -2.019
REMARK SMILES CCCCCCCCCCCCCCCC(=O)[O-]
REMARK SMILES IDX 9 1 10 2 11 3 12 4 13 5 14 6 15 7 16 8 17 9 18 10 8 11 7 12
REMARK SMILES IDX 6 13 5 14 4 15 3 16 2 17 1 18
REMARK H PARENT
REMARK INDEX MAP 4 1 6 2 8 3 10 4 12 5 14 6 16 7 18 8 2 9 1 10 3 11 5 12 7 13
REMARK INDEX MAP 9 14 11 15 13 16 15 17 17 18
ROOT
ATOM      1  C   UNL     1     -32.135  23.248   8.165  1.00  0.00     0.000 C 
ENDROOT
BRANCH   1   2
ATOM      2  C   UNL     1     -31.657  21.991   7.432  1.00  0.00     0.000 C 
BRANCH   2   3
ATOM      3  C   UNL     1     -31.800  22.012   5.906  1.00  0.00     0.000 C 
BRANCH   3   4
ATOM      4  C   UNL     1     -33.125  21.427   5.407  1.00  0.00     0.000 C 
BRANCH   4   5
ATOM      5  C   UNL     1     -32.899  20.410   4.288  1.00  0.00     0.000 C 
BRANCH   5   6
ATOM      6  C   UNL     1     -32.400  19.047   4.783  1.00  0.00     0.006 C 
BRANCH   6   7
ATOM      7  C   UNL     1     -32.899  18.657   6.174  1.00  0.00     0.053 C 
BRANCH   7   8
ATOM      8  C   UNL     1     -31.806  18.305   7.153  1.00  0.00     0.041 C 
ATOM      9  O   UNL     1     -31.870  18.525   8.355  1.00  0.00    -0.550 OA
ATOM     10  O   UNL     1     -30.725  17.747   6.556  1.00  0.00    -0.550 OA
ENDBRANCH   7   8
ENDBRANCH   6   7
ENDBRANCH   5   6
ENDBRANCH   4   5
ENDBRANCH   3   4
ENDBRANCH   2   3
ENDBRANCH   1   2
BRANCH   1  11
ATOM     11  C   UNL     1     -32.108  24.511   7.301  1.00  0.00     0.000 C 
BRANCH  11  12
ATOM     12  C   UNL     1     -33.526  24.953   6.931  1.00  0.00    -0.000 C 
BRANCH  12  13
ATOM     13  C   UNL     1     -34.573  24.213   7.765  1.00  0.00    -0.000 C 
BRANCH  13  14
ATOM     14  C   UNL     1     -35.509  23.333   6.930  1.00  0.00    -0.000 C 
BRANCH  14  15
ATOM     15  C   UNL     1     -36.467  22.433   7.720  1.00  0.00    -0.000 C 
BRANCH  15  16
ATOM     16  C   UNL     1     -36.099  20.948   7.661  1.00  0.00    -0.000 C 
BRANCH  16  17
ATOM     17  C   UNL     1     -34.877  20.593   8.512  1.00  0.00    -0.003 C 
ATOM     18  C   UNL     1     -34.924  21.170   9.918  1.00  0.00     0.004 C 
ENDBRANCH  16  17
ENDBRANCH  15  16
ENDBRANCH  14  15
ENDBRANCH  13  14
ENDBRANCH  12  13
ENDBRANCH  11  12
ENDBRANCH   1  11
TORSDOF 14
ENDMDL
MODEL 8
REMARK VINA RESULT:    -5.864      1.321      3.541
REMARK INTER + INTRA:         -12.681
REMARK INTER:                 -10.399
REMARK INTRA:                  -2.283
REMARK UNBOUND:                -2.019
REMARK SMILES CCCCCCCCCCCCCCCC(=O)[O-]
REMARK SMILES IDX 9 1 10 2 11 3 12 4 13 5 14 6 15 7 16 8 17 9 18 10 8 11 7 12
REMARK SMILES IDX 6 13 5 14 4 15 3 16 2 17 1 18
REMARK H PARENT
REMARK INDEX MAP 4 1 6 2 8 3 10 4 12 5 14 6 16 7 18 8 2 9 1 10 3 11 5 12 7 13
REMARK INDEX MAP 9 14 11 15 13 16 15 17 17 18
ROOT
ATOM      1  C   UNL     1     -32.562  23.370   9.711  1.00  0.00     0.000 C 
ENDROOT
BRANCH   1   2
ATOM      2  C   UNL     1     -34.076  23.166   9.823  1.00  0.00     0.000 C 
BRANCH   2   3
ATOM      3  C   UNL     1     -34.547  21.715   9.972  1.00  0.00     0.000 C 
BRANCH   3   4
ATOM      4  C   UNL     1     -35.337  21.201   8.766  1.00  0.00     0.000 C 
BRANCH   4   5
ATOM      5  C   UNL     1     -35.756  22.347   7.845  1.00  0.00     0.000 C 
BRANCH   5   6
ATOM      6  C   UNL     1     -36.243  21.885   6.465  1.00  0.00     0.006 C 
BRANCH   6   7
ATOM      7  C   UNL     1     -35.466  20.706   5.881  1.00  0.00     0.053 C 
BRANCH   7   8
ATOM      8  C   UNL     1     -35.253  20.777   4.389  1.00  0.00     0.041 C 
ATOM      9  O   UNL     1     -34.203  21.125   3.865  1.00  0.00    -0.550 OA
ATOM     10  O   UNL     1     -36.362  20.447   3.683  1.00  0.00    -0.550 OA
ENDBRANCH   7   8
ENDBRANCH   6   7
ENDBRANCH   5   6
ENDBRANCH   4   5
ENDBRANCH   3   4
ENDBRANCH   2   3
ENDBRANCH   1   2
BRANCH   1  11
ATOM     11  C   UNL     1     -32.168  24.629   8.934  1.00  0.00     0.000 C 
BRANCH  11  12
ATOM     12  C   UNL     1     -32.911  24.705   7.598  1.00  0.00    -0.000 C 
BRANCH  12  13
ATOM     13  C   UNL     1     -32.081  24.094   6.468  1.00  0.00    -0.000 C 
BRANCH  13  14
ATOM     14  C   UNL     1     -32.368  22.607   6.234  1.00  0.00    -0.000 C 
BRANCH  14  15
ATOM     15  C   UNL     1     -31.359  21.625   6.841  1.00  0.00    -0.000 C 
BRANCH  15  16
ATOM     16  C   UNL     1     -32.014  20.452   7.576  1.00  0.00    -0.000 C 
BRANCH  16  17
ATOM     17  C   UNL     1     -32.275  19.242   6.673  1.00  0.00    -0.003 C 
ATOM     18  C   UNL     1     -31.197  18.173   6.759  1.00  0.00     0.004 C 
ENDBRANCH  16  17
ENDBRANCH  15  16
ENDBRANCH  14  15
ENDBRANCH  13  14
ENDBRANCH  12  13
ENDBRANCH  11  12
ENDBRANCH   1  11
TORSDOF 14
ENDMDL
MODEL 9
REMARK VINA RESULT:    -5.852      1.853      2.807
REMARK INTER + INTRA:         -12.659
REMARK INTER:                 -10.797
REMARK INTRA:                  -1.862
REMARK UNBOUND:                -2.019
REMARK SMILES CCCCCCCCCCCCCCCC(=O)[O-]
REMARK SMILES IDX 9 1 10 2 11 3 12 4 13 5 14 6 15 7 16 8 17 9 18 10 8 11 7 12
REMARK SMILES IDX 6 13 5 14 4 15 3 16 2 17 1 18
REMARK H PARENT
REMARK INDEX MAP 4 1 6 2 8 3 10 4 12 5 14 6 16 7 18 8 2 9 1 10 3 11 5 12 7 13
REMARK INDEX MAP 9 14 11 15 13 16 15 17 17 18
ROOT
ATOM      1  C   UNL     1     -33.232  24.953   7.299  1.00  0.00     0.000 C 
ENDROOT
BRANCH   1   2
ATOM      2  C   UNL     1     -31.886  24.291   6.987  1.00  0.00     0.000 C 
BRANCH   2   3
ATOM      3  C   UNL     1     -31.955  22.873   6.410  1.00  0.00     0.000 C 
BRANCH   3   4
ATOM      4  C   UNL     1     -31.383  21.803   7.344  1.00  0.00     0.000 C 
BRANCH   4   5
ATOM      5  C   UNL     1     -32.306  20.588   7.432  1.00  0.00     0.000 C 
BRANCH   5   6
ATOM      6  C   UNL     1     -32.496  19.859   6.095  1.00  0.00     0.006 C 
BRANCH   6   7
ATOM      7  C   UNL     1     -33.909  19.951   5.518  1.00  0.00     0.053 C 
BRANCH   7   8
ATOM      8  C   UNL     1     -34.015  20.774   4.258  1.00  0.00     0.041 C 
ATOM      9  O   UNL     1     -33.196  20.740   3.349  1.00  0.00    -0.550 OA
ATOM     10  O   UNL     1     -35.100  21.586   4.250  1.00  0.00    -0.550 OA
ENDBRANCH   7   8
ENDBRANCH   6   7
ENDBRANCH   5   6
ENDBRANCH   4   5
ENDBRANCH   3   4
ENDBRANCH   2   3
ENDBRANCH   1   2
BRANCH   1  11
ATOM     11  C   UNL     1     -34.430  24.233   6.675  1.00  0.00     0.000 C 
BRANCH  11  12
ATOM     12  C   UNL     1     -35.456  23.847   7.743  1.00  0.00    -0.000 C 
BRANCH  12  13
ATOM     13  C   UNL     1     -34.976  22.650   8.565  1.00  0.00    -0.000 C 
BRANCH  13  14
ATOM     14  C   UNL     1     -35.815  21.386   8.352  1.00  0.00    -0.000 C 
BRANCH  14  15
ATOM     15  C   UNL     1     -37.138  21.576   7.601  1.00  0.00    -0.000 C 
BRANCH  15  16
ATOM     16  C   UNL     1     -37.433  20.463   6.591  1.00  0.00    -0.000 C 
BRANCH  16  17
ATOM     17  C   UNL     1     -38.922  20.322   6.263  1.00  0.00    -0.003 C 
ATOM     18  C   UNL     1     -39.813  20.253   7.493  1.00  0.00     0.004 C 
ENDBRANCH  16  17
ENDBRANCH  15  16
ENDBRANCH  14  15
ENDBRANCH  13  14
ENDBRANCH  12  13
ENDBRANCH  11  12
ENDBRANCH   1  11
TORSDOF 14
ENDMDL
MODEL 10
REMARK VINA RESULT:    -5.837      1.335      4.419
REMARK INTER + INTRA:         -12.633
REMARK INTER:                 -10.433
REMARK INTRA:                  -2.200
REMARK UNBOUND:                -2.019
REMARK SMILES CCCCCCCCCCCCCCCC(=O)[O-]
REMARK SMILES IDX 9 1 10 2 11 3 12 4 13 5 14 6 15 7 16 8 17 9 18 10 8 11 7 12
REMARK SMILES IDX 6 13 5 14 4 15 3 16 2 17 1 18
REMARK H PARENT
REMARK INDEX MAP 4 1 6 2 8 3 10 4 12 5 14 6 16 7 18 8 2 9 1 10 3 11 5 12 7 13
REMARK INDEX MAP 9 14 11 15 13 16 15 17 17 18
ROOT
ATOM      1  C   UNL     1     -33.858  18.777   8.010  1.00  0.00     0.000 C 
ENDROOT
BRANCH   1   2
ATOM      2  C   UNL     1     -33.974  19.306   9.443  1.00  0.00     0.000 C 
BRANCH   2   3
ATOM      3  C   UNL     1     -34.511  20.735   9.588  1.00  0.00     0.000 C 
BRANCH   3   4
ATOM      4  C   UNL     1     -35.663  21.056   8.632  1.00  0.00     0.000 C 
BRANCH   4   5
ATOM      5  C   UNL     1     -35.428  22.378   7.900  1.00  0.00     0.000 C 
BRANCH   5   6
ATOM      6  C   UNL     1     -35.723  22.311   6.396  1.00  0.00     0.006 C 
BRANCH   6   7
ATOM      7  C   UNL     1     -35.685  20.903   5.804  1.00  0.00     0.053 C 
BRANCH   7   8
ATOM      8  C   UNL     1     -35.328  20.852   4.339  1.00  0.00     0.041 C 
ATOM      9  O   UNL     1     -34.240  21.190   3.890  1.00  0.00    -0.550 OA
ATOM     10  O   UNL     1     -36.351  20.423   3.562  1.00  0.00    -0.550 OA
ENDBRANCH   7   8
ENDBRANCH   6   7
ENDBRANCH   5   6
ENDBRANCH   4   5
ENDBRANCH   3   4
ENDBRANCH   2   3
ENDBRANCH   1   2
BRANCH   1  11
ATOM     11  C   UNL     1     -32.415  18.554   7.553  1.00  0.00     0.000 C 
BRANCH  11  12
ATOM     12  C   UNL     1     -31.606  19.851   7.633  1.00  0.00    -0.000 C 
BRANCH  12  13
ATOM     13  C   UNL     1     -32.112  20.882   6.622  1.00  0.00    -0.000 C 
BRANCH  13  14
ATOM     14  C   UNL     1     -31.480  22.267   6.793  1.00  0.00    -0.000 C 
BRANCH  14  15
ATOM     15  C   UNL     1     -32.254  23.439   6.178  1.00  0.00    -0.000 C 
BRANCH  15  16
ATOM     16  C   UNL     1     -32.549  24.566   7.172  1.00  0.00    -0.000 C 
BRANCH  16  17
ATOM     17  C   UNL     1     -31.757  24.445   8.477  1.00  0.00    -0.003 C 
ATOM     18  C   UNL     1     -32.498  23.697   9.573  1.00  0.00     0.004 C 
ENDBRANCH  16  17
ENDBRANCH  15  16
ENDBRANCH  14  15
ENDBRANCH  13  14
ENDBRANCH  12  13
ENDBRANCH  11  12
ENDBRANCH   1  11
TORSDOF 14
ENDMDL
MODEL 11
REMARK VINA RESULT:    -5.834      2.563      4.726
REMARK INTER + INTRA:         -12.627
REMARK INTER:                 -10.361
REMARK INTRA:                  -2.267
REMARK UNBOUND:                -2.019
REMARK SMILES CCCCCCCCCCCCCCCC(=O)[O-]
REMARK SMILES IDX 9 1 10 2 11 3 12 4 13 5 14 6 15 7 16 8 17 9 18 10 8 11 7 12
REMARK SMILES IDX 6 13 5 14 4 15 3 16 2 17 1 18
REMARK H PARENT
REMARK INDEX MAP 4 1 6 2 8 3 10 4 12 5 14 6 16 7 18 8 2 9 1 10 3 11 5 12 7 13
REMARK INDEX MAP 9 14 11 15 13 16 15 17 17 18
ROOT
ATOM      1  C   UNL     1     -32.879  20.467   7.554  1.00  0.00     0.000 C 
ENDROOT
BRANCH   1   2
ATOM      2  C   UNL     1     -32.979  20.666   6.039  1.00  0.00     0.000 C 
BRANCH   2   3
ATOM      3  C   UNL     1     -34.269  20.162   5.381  1.00  0.00     0.000 C 
BRANCH   3   4
ATOM      4  C   UNL     1     -35.049  21.255   4.645  1.00  0.00     0.000 C 
BRANCH   4   5
ATOM      5  C   UNL     1     -36.551  20.969   4.651  1.00  0.00     0.000 C 
BRANCH   5   6
ATOM      6  C   UNL     1     -37.095  20.554   6.024  1.00  0.00     0.006 C 
BRANCH   6   7
ATOM      7  C   UNL     1     -38.562  20.127   6.022  1.00  0.00     0.053 C 
BRANCH   7   8
ATOM      8  C   UNL     1     -39.413  20.815   7.061  1.00  0.00     0.041 C 
ATOM      9  O   UNL     1     -40.389  20.302   7.593  1.00  0.00    -0.550 OA
ATOM     10  O   UNL     1     -39.003  22.080   7.324  1.00  0.00    -0.550 OA
ENDBRANCH   7   8
ENDBRANCH   6   7
ENDBRANCH   5   6
ENDBRANCH   4   5
ENDBRANCH   3   4
ENDBRANCH   2   3
ENDBRANCH   1   2
BRANCH   1  11
ATOM     11  C   UNL     1     -34.234  20.476   8.266  1.00  0.00     0.000 C 
BRANCH  11  12
ATOM     12  C   UNL     1     -34.148  21.221   9.600  1.00  0.00    -0.000 C 
BRANCH  12  13
ATOM     13  C   UNL     1     -34.763  22.618   9.495  1.00  0.00    -0.000 C 
BRANCH  13  14
ATOM     14  C   UNL     1     -35.498  22.864   8.174  1.00  0.00    -0.000 C 
BRANCH  14  15
ATOM     15  C   UNL     1     -35.098  24.132   7.409  1.00  0.00    -0.000 C 
BRANCH  15  16
ATOM     16  C   UNL     1     -33.646  24.119   6.922  1.00  0.00    -0.000 C 
BRANCH  16  17
ATOM     17  C   UNL     1     -32.775  25.190   7.586  1.00  0.00    -0.003 C 
ATOM     18  C   UNL     1     -31.845  24.640   8.656  1.00  0.00     0.004 C 
ENDBRANCH  16  17
ENDBRANCH  15  16
ENDBRANCH  14  15
ENDBRANCH  13  14
ENDBRANCH  12  13
ENDBRANCH  11  12
ENDBRANCH   1  11
TORSDOF 14
ENDMDL
MODEL 12
REMARK VINA RESULT:    -5.825      2.662      4.858
REMARK INTER + INTRA:         -12.611
REMARK INTER:                 -10.293
REMARK INTRA:                  -2.317
REMARK UNBOUND:                -2.019
REMARK SMILES CCCCCCCCCCCCCCCC(=O)[O-]
REMARK SMILES IDX 9 1 10 2 11 3 12 4 13 5 14 6 15 7 16 8 17 9 18 10 8 11 7 12
REMARK SMILES IDX 6 13 5 14 4 15 3 16 2 17 1 18
REMARK H PARENT
REMARK INDEX MAP 4 1 6 2 8 3 10 4 12 5 14 6 16 7 18 8 2 9 1 10 3 11 5 12 7 13
REMARK INDEX MAP 9 14 11 15 13 16 15 17 17 18
ROOT
ATOM      1  C   UNL     1     -31.876  22.985   6.586  1.00  0.00     0.000 C 
ENDROOT
BRANCH   1   2
ATOM      2  C   UNL     1     -31.943  24.112   7.622  1.00  0.00     0.000 C 
BRANCH   2   3
ATOM      3  C   UNL     1     -33.242  24.925   7.644  1.00  0.00     0.000 C 
BRANCH   3   4
ATOM      4  C   UNL     1     -34.393  24.261   6.883  1.00  0.00     0.000 C 
BRANCH   4   5
ATOM      5  C   UNL     1     -35.485  23.775   7.837  1.00  0.00     0.000 C 
BRANCH   5   6
ATOM      6  C   UNL     1     -35.337  22.305   8.247  1.00  0.00     0.006 C 
BRANCH   6   7
ATOM      7  C   UNL     1     -34.664  22.089   9.602  1.00  0.00     0.053 C 
BRANCH   7   8
ATOM      8  C   UNL     1     -34.546  20.643  10.016  1.00  0.00     0.041 C 
ATOM      9  O   UNL     1     -34.316  19.727   9.237  1.00  0.00    -0.550 OA
ATOM     10  O   UNL     1     -34.754  20.456  11.342  1.00  0.00    -0.550 OA
ENDBRANCH   7   8
ENDBRANCH   6   7
ENDBRANCH   5   6
ENDBRANCH   4   5
ENDBRANCH   3   4
ENDBRANCH   2   3
ENDBRANCH   1   2
BRANCH   1  11
ATOM     11  C   UNL     1     -31.765  21.589   7.204  1.00  0.00     0.000 C 
BRANCH  11  12
ATOM     12  C   UNL     1     -32.493  20.550   6.348  1.00  0.00    -0.000 C 
BRANCH  12  13
ATOM     13  C   UNL     1     -33.336  21.220   5.262  1.00  0.00    -0.000 C 
BRANCH  13  14
ATOM     14  C   UNL     1     -34.596  20.432   4.892  1.00  0.00    -0.000 C 
BRANCH  14  15
ATOM     15  C   UNL     1     -35.857  21.264   4.630  1.00  0.00    -0.000 C 
BRANCH  15  16
ATOM     16  C   UNL     1     -37.159  20.488   4.851  1.00  0.00    -0.000 C 
BRANCH  16  17
ATOM     17  C   UNL     1     -37.922  20.930   6.103  1.00  0.00    -0.003 C 
ATOM     18  C   UNL     1     -38.600  19.785   6.838  1.00  0.00     0.004 C 
ENDBRANCH  16  17
ENDBRANCH  15  16
ENDBRANCH  14  15
ENDBRANCH  13  14
ENDBRANCH  12  13
ENDBRANCH  11  12
ENDBRANCH   1  11
TORSDOF 14
ENDMDL
MODEL 13
REMARK VINA RESULT:    -5.813      2.279      3.370
REMARK INTER + INTRA:         -12.589
REMARK INTER:                 -10.269
REMARK INTRA:                  -2.319
REMARK UNBOUND:                -2.019
REMARK SMILES CCCCCCCCCCCCCCCC(=O)[O-]
REMARK SMILES IDX 9 1 10 2 11 3 12 4 13 5 14 6 15 7 16 8 17 9 18 10 8 11 7 12
REMARK SMILES IDX 6 13 5 14 4 15 3 16 2 17 1 18
REMARK H PARENT
REMARK INDEX MAP 4 1 6 2 8 3 10 4 12 5 14 6 16 7 18 8 2 9 1 10 3 11 5 12 7 13
REMARK INDEX MAP 9 14 11 15 13 16 15 17 17 18
ROOT
ATOM      1  C   UNL     1     -31.814  21.775   6.924  1.00  0.00     0.000 C 
ENDROOT
BRANCH   1   2
ATOM      2  C   UNL     1     -32.430  21.819   5.522  1.00  0.00     0.000 C 
BRANCH   2   3
ATOM      3  C   UNL     1     -32.984  20.491   4.992  1.00  0.00     0.000 C 
BRANCH   3   4
ATOM      4  C   UNL     1     -34.431  20.221   5.411  1.00  0.00     0.000 C 
BRANCH   4   5
ATOM      5  C   UNL     1     -35.404  21.156   4.691  1.00  0.00     0.000 C 
BRANCH   5   6
ATOM      6  C   UNL     1     -36.832  20.607   4.597  1.00  0.00     0.006 C 
BRANCH   6   7
ATOM      7  C   UNL     1     -37.599  20.603   5.919  1.00  0.00     0.053 C 
BRANCH   7   8
ATOM      8  C   UNL     1     -39.096  20.715   5.771  1.00  0.00     0.041 C 
ATOM      9  O   UNL     1     -39.752  20.077   4.958  1.00  0.00    -0.550 OA
ATOM     10  O   UNL     1     -39.642  21.625   6.614  1.00  0.00    -0.550 OA
ENDBRANCH   7   8
ENDBRANCH   6   7
ENDBRANCH   5   6
ENDBRANCH   4   5
ENDBRANCH   3   4
ENDBRANCH   2   3
ENDBRANCH   1   2
BRANCH   1  11
ATOM     11  C   UNL     1     -31.783  23.136   7.624  1.00  0.00     0.000 C 
BRANCH  11  12
ATOM     12  C   UNL     1     -32.575  24.179   6.832  1.00  0.00    -0.000 C 
BRANCH  12  13
ATOM     13  C   UNL     1     -33.843  24.596   7.579  1.00  0.00    -0.000 C 
BRANCH  13  14
ATOM     14  C   UNL     1     -35.081  23.787   7.181  1.00  0.00    -0.000 C 
BRANCH  14  15
ATOM     15  C   UNL     1     -35.574  22.762   8.211  1.00  0.00    -0.000 C 
BRANCH  15  16
ATOM     16  C   UNL     1     -34.829  22.831   9.547  1.00  0.00    -0.000 C 
BRANCH  16  17
ATOM     17  C   UNL     1     -34.489  21.453  10.122  1.00  0.00    -0.003 C 
ATOM     18  C   UNL     1     -34.500  20.341   9.086  1.00  0.00     0.004 C 
ENDBRANCH  16  17
ENDBRANCH  15  16
ENDBRANCH  14  15
ENDBRANCH  13  14
ENDBRANCH  12  13
ENDBRANCH  11  12
ENDBRANCH   1  11
TORSDOF 14
ENDMDL
MODEL 14
REMARK VINA RESULT:    -5.805      2.522      4.082
REMARK INTER + INTRA:         -12.574
REMARK INTER:                 -10.179
REMARK INTRA:                  -2.395
REMARK UNBOUND:                -2.019
REMARK SMILES CCCCCCCCCCCCCCCC(=O)[O-]
REMARK SMILES IDX 9 1 10 2 11 3 12 4 13 5 14 6 15 7 16 8 17 9 18 10 8 11 7 12
REMARK SMILES IDX 6 13 5 14 4 15 3 16 2 17 1 18
REMARK H PARENT
REMARK INDEX MAP 4 1 6 2 8 3 10 4 12 5 14 6 16 7 18 8 2 9 1 10 3 11 5 12 7 13
REMARK INDEX MAP 9 14 11 15 13 16 15 17 17 18
ROOT
ATOM      1  C   UNL     1     -32.366  24.232   8.077  1.00  0.00     0.000 C 
ENDROOT
BRANCH   1   2
ATOM      2  C   UNL     1     -33.582  24.568   7.208  1.00  0.00     0.000 C 
BRANCH   2   3
ATOM      3  C   UNL     1     -34.900  23.897   7.611  1.00  0.00     0.000 C 
BRANCH   3   4
ATOM      4  C   UNL     1     -35.369  22.826   6.622  1.00  0.00     0.000 C 
BRANCH   4   5
ATOM      5  C   UNL     1     -36.706  22.219   7.051  1.00  0.00     0.000 C 
BRANCH   5   6
ATOM      6  C   UNL     1     -36.987  20.845   6.432  1.00  0.00     0.006 C 
BRANCH   6   7
ATOM      7  C   UNL     1     -38.097  20.053   7.123  1.00  0.00     0.053 C 
BRANCH   7   8
ATOM      8  C   UNL     1     -39.491  20.557   6.840  1.00  0.00     0.041 C 
ATOM      9  O   UNL     1     -40.387  20.590   7.674  1.00  0.00    -0.550 OA
ATOM     10  O   UNL     1     -39.661  20.940   5.551  1.00  0.00    -0.550 OA
ENDBRANCH   7   8
ENDBRANCH   6   7
ENDBRANCH   5   6
ENDBRANCH   4   5
ENDBRANCH   3   4
ENDBRANCH   2   3
ENDBRANCH   1   2
BRANCH   1  11
ATOM     11  C   UNL     1     -31.933  22.767   7.985  1.00  0.00     0.000 C 
BRANCH  11  12
ATOM     12  C   UNL     1     -31.779  22.330   6.527  1.00  0.00    -0.000 C 
BRANCH  12  13
ATOM     13  C   UNL     1     -32.268  20.894   6.325  1.00  0.00    -0.000 C 
BRANCH  13  14
ATOM     14  C   UNL     1     -32.412  20.108   7.631  1.00  0.00    -0.000 C 
BRANCH  14  15
ATOM     15  C   UNL     1     -33.820  19.595   7.955  1.00  0.00    -0.000 C 
BRANCH  15  16
ATOM     16  C   UNL     1     -34.162  19.648   9.447  1.00  0.00    -0.000 C 
BRANCH  16  17
ATOM     17  C   UNL     1     -35.023  20.856   9.829  1.00  0.00    -0.003 C 
ATOM     18  C   UNL     1     -34.290  21.883  10.677  1.00  0.00     0.004 C 
ENDBRANCH  16  17
ENDBRANCH  15  16
ENDBRANCH  14  15
ENDBRANCH  13  14
ENDBRANCH  12  13
ENDBRANCH  11  12
ENDBRANCH   1  11
TORSDOF 14
ENDMDL
MODEL 15
REMARK VINA RESULT:    -5.781      2.703      5.508
REMARK INTER + INTRA:         -12.531
REMARK INTER:                 -10.133
REMARK INTRA:                  -2.399
REMARK UNBOUND:                -2.019
REMARK SMILES CCCCCCCCCCCCCCCC(=O)[O-]
REMARK SMILES IDX 9 1 10 2 11 3 12 4 13 5 14 6 15 7 16 8 17 9 18 10 8 11 7 12
REMARK SMILES IDX 6 13 5 14 4 15 3 16 2 17 1 18
REMARK H PARENT
REMARK INDEX MAP 4 1 6 2 8 3 10 4 12 5 14 6 16 7 18 8 2 9 1 10 3 11 5 12 7 13
REMARK INDEX MAP 9 14 11 15 13 16 15 17 17 18
ROOT
ATOM      1  C   UNL     1     -33.690  20.563   4.240  1.00  0.00     0.000 C 
ENDROOT
BRANCH   1   2
ATOM      2  C   UNL     1     -34.996  20.480   5.036  1.00  0.00     0.000 C 
BRANCH   2   3
ATOM      3  C   UNL     1     -35.659  21.819   5.377  1.00  0.00     0.000 C 
BRANCH   3   4
ATOM      4  C   UNL     1     -36.192  21.891   6.810  1.00  0.00     0.000 C 
BRANCH   4   5
ATOM      5  C   UNL     1     -35.889  23.247   7.450  1.00  0.00     0.000 C 
BRANCH   5   6
ATOM      6  C   UNL     1     -35.334  23.147   8.876  1.00  0.00     0.006 C 
BRANCH   6   7
ATOM      7  C   UNL     1     -35.091  21.719   9.363  1.00  0.00     0.053 C 
BRANCH   7   8
ATOM      8  C   UNL     1     -34.449  21.625  10.725  1.00  0.00     0.041 C 
ATOM      9  O   UNL     1     -33.785  22.521  11.229  1.00  0.00    -0.550 OA
ATOM     10  O   UNL     1     -34.656  20.427  11.324  1.00  0.00    -0.550 OA
ENDBRANCH   7   8
ENDBRANCH   6   7
ENDBRANCH   5   6
ENDBRANCH   4   5
ENDBRANCH   3   4
ENDBRANCH   2   3
ENDBRANCH   1   2
BRANCH   1  11
ATOM     11  C   UNL     1     -32.544  19.755   4.855  1.00  0.00     0.000 C 
BRANCH  11  12
ATOM     12  C   UNL     1     -33.024  18.960   6.072  1.00  0.00    -0.000 C 
BRANCH  12  13
ATOM     13  C   UNL     1     -32.703  19.696   7.375  1.00  0.00    -0.000 C 
BRANCH  13  14
ATOM     14  C   UNL     1     -31.577  20.724   7.235  1.00  0.00    -0.000 C 
BRANCH  14  15
ATOM     15  C   UNL     1     -31.886  22.134   7.752  1.00  0.00    -0.000 C 
BRANCH  15  16
ATOM     16  C   UNL     1     -32.269  23.121   6.644  1.00  0.00    -0.000 C 
BRANCH  16  17
ATOM     17  C   UNL     1     -32.225  24.584   7.095  1.00  0.00    -0.003 C 
ATOM     18  C   UNL     1     -32.012  24.754   8.591  1.00  0.00     0.004 C 
ENDBRANCH  16  17
ENDBRANCH  15  16
ENDBRANCH  14  15
ENDBRANCH  13  14
ENDBRANCH  12  13
ENDBRANCH  11  12
ENDBRANCH   1  11
TORSDOF 14
ENDMDL
MODEL 16
REMARK VINA RESULT:    -5.770      2.375      5.243
REMARK INTER + INTRA:         -12.512
REMARK INTER:                  -9.994
REMARK INTRA:                  -2.518
REMARK UNBOUND:                -2.019
REMARK SMILES CCCCCCCCCCCCCCCC(=O)[O-]
REMARK SMILES IDX 9 1 10 2 11 3 12 4 13 5 14 6 15 7 16 8 17 9 18 10 8 11 7 12
REMARK SMILES IDX 6 13 5 14 4 15 3 16 2 17 1 18
REMARK H PARENT
REMARK INDEX MAP 4 1 6 2 8 3 10 4 12 5 14 6 16 7 18 8 2 9 1 10 3 11 5 12 7 13
REMARK INDEX MAP 9 14 11 15 13 16 15 17 17 18
ROOT
ATOM      1  C   UNL     1     -34.022  20.149   9.474  1.00  0.00     0.000 C 
ENDROOT
BRANCH   1   2
ATOM      2  C   UNL     1     -35.098  21.214   9.702  1.00  0.00     0.000 C 
BRANCH   2   3
ATOM      3  C   UNL     1     -34.875  22.554   8.990  1.00  0.00     0.000 C 
BRANCH   3   4
ATOM      4  C   UNL     1     -36.001  22.927   8.023  1.00  0.00     0.000 C 
BRANCH   4   5
ATOM      5  C   UNL     1     -35.784  22.300   6.645  1.00  0.00     0.000 C 
BRANCH   5   6
ATOM      6  C   UNL     1     -36.801  21.206   6.297  1.00  0.00     0.006 C 
BRANCH   6   7
ATOM      7  C   UNL     1     -37.933  21.047   7.312  1.00  0.00     0.053 C 
BRANCH   7   8
ATOM      8  C   UNL     1     -39.284  20.770   6.700  1.00  0.00     0.041 C 
ATOM      9  O   UNL     1     -39.519  20.845   5.501  1.00  0.00    -0.550 OA
ATOM     10  O   UNL     1     -40.227  20.461   7.623  1.00  0.00    -0.550 OA
ENDBRANCH   7   8
ENDBRANCH   6   7
ENDBRANCH   5   6
ENDBRANCH   4   5
ENDBRANCH   3   4
ENDBRANCH   2   3
ENDBRANCH   1   2
BRANCH   1  11
ATOM     11  C   UNL     1     -34.366  19.157   8.359  1.00  0.00     0.000 C 
BRANCH  11  12
ATOM     12  C   UNL     1     -33.185  18.974   7.403  1.00  0.00    -0.000 C 
BRANCH  12  13
ATOM     13  C   UNL     1     -33.499  19.548   6.020  1.00  0.00    -0.000 C 
BRANCH  13  14
ATOM     14  C   UNL     1     -32.560  20.684   5.602  1.00  0.00    -0.000 C 
BRANCH  14  15
ATOM     15  C   UNL     1     -32.128  21.644   6.717  1.00  0.00    -0.000 C 
BRANCH  15  16
ATOM     16  C   UNL     1     -32.124  23.115   6.290  1.00  0.00    -0.000 C 
BRANCH  16  17
ATOM     17  C   UNL     1     -32.005  24.087   7.467  1.00  0.00    -0.003 C 
ATOM     18  C   UNL     1     -32.854  25.339   7.311  1.00  0.00     0.004 C 
ENDBRANCH  16  17
ENDBRANCH  15  16
ENDBRANCH  14  15
ENDBRANCH  13  14
ENDBRANCH  12  13
ENDBRANCH  11  12
ENDBRANCH   1  11
TORSDOF 14
ENDMDL
MODEL 17
REMARK VINA RESULT:    -5.733      2.381      3.729
REMARK INTER + INTRA:         -12.444
REMARK INTER:                 -10.286
REMARK INTRA:                  -2.158
REMARK UNBOUND:                -2.019
REMARK SMILES CCCCCCCCCCCCCCCC(=O)[O-]
REMARK SMILES IDX 9 1 10 2 11 3 12 4 13 5 14 6 15 7 16 8 17 9 18 10 8 11 7 12
REMARK SMILES IDX 6 13 5 14 4 15 3 16 2 17 1 18
REMARK H PARENT
REMARK INDEX MAP 4 1 6 2 8 3 10 4 12 5 14 6 16 7 18 8 2 9 1 10 3 11 5 12 7 13
REMARK INDEX MAP 9 14 11 15 13 16 15 17 17 18
ROOT
ATOM      1  C   UNL     1     -32.571  24.637   8.176  1.00  0.00     0.000 C 
ENDROOT
BRANCH   1   2
ATOM      2  C   UNL     1     -32.261  24.325   6.709  1.00  0.00     0.000 C 
BRANCH   2   3
ATOM      3  C   UNL     1     -31.839  22.882   6.406  1.00  0.00     0.000 C 
BRANCH   3   4
ATOM      4  C   UNL     1     -32.991  21.995   5.927  1.00  0.00     0.000 C 
BRANCH   4   5
ATOM      5  C   UNL     1     -32.497  20.913   4.964  1.00  0.00     0.000 C 
BRANCH   5   6
ATOM      6  C   UNL     1     -33.172  19.551   5.169  1.00  0.00     0.006 C 
BRANCH   6   7
ATOM      7  C   UNL     1     -33.225  19.082   6.622  1.00  0.00     0.053 C 
BRANCH   7   8
ATOM      8  C   UNL     1     -31.937  18.483   7.131  1.00  0.00     0.041 C 
ATOM      9  O   UNL     1     -31.519  18.631   8.272  1.00  0.00    -0.550 OA
ATOM     10  O   UNL     1     -31.268  17.786   6.180  1.00  0.00    -0.550 OA
ENDBRANCH   7   8
ENDBRANCH   6   7
ENDBRANCH   5   6
ENDBRANCH   4   5
ENDBRANCH   3   4
ENDBRANCH   2   3
ENDBRANCH   1   2
BRANCH   1  11
ATOM     11  C   UNL     1     -32.335  23.455   9.119  1.00  0.00     0.000 C 
BRANCH  11  12
ATOM     12  C   UNL     1     -33.642  23.007   9.777  1.00  0.00    -0.000 C 
BRANCH  12  13
ATOM     13  C   UNL     1     -33.995  21.571   9.387  1.00  0.00    -0.000 C 
BRANCH  13  14
ATOM     14  C   UNL     1     -35.431  21.409   8.880  1.00  0.00    -0.000 C 
BRANCH  14  15
ATOM     15  C   UNL     1     -35.910  22.461   7.872  1.00  0.00    -0.000 C 
BRANCH  15  16
ATOM     16  C   UNL     1     -36.931  21.922   6.865  1.00  0.00    -0.000 C 
BRANCH  16  17
ATOM     17  C   UNL     1     -36.450  20.669   6.127  1.00  0.00    -0.003 C 
ATOM     18  C   UNL     1     -36.784  20.670   4.644  1.00  0.00     0.004 C 
ENDBRANCH  16  17
ENDBRANCH  15  16
ENDBRANCH  14  15
ENDBRANCH  13  14
ENDBRANCH  12  13
ENDBRANCH  11  12
ENDBRANCH   1  11
TORSDOF 14
ENDMDL
MODEL 18
REMARK VINA RESULT:    -5.700      2.284      3.800
REMARK INTER + INTRA:         -12.384
REMARK INTER:                 -10.485
REMARK INTRA:                  -1.899
REMARK UNBOUND:                -2.019
REMARK SMILES CCCCCCCCCCCCCCCC(=O)[O-]
REMARK SMILES IDX 9 1 10 2 11 3 12 4 13 5 14 6 15 7 16 8 17 9 18 10 8 11 7 12
REMARK SMILES IDX 6 13 5 14 4 15 3 16 2 17 1 18
REMARK H PARENT
REMARK INDEX MAP 4 1 6 2 8 3 10 4 12 5 14 6 16 7 18 8 2 9 1 10 3 11 5 12 7 13
REMARK INDEX MAP 9 14 11 15 13 16 15 17 17 18
ROOT
ATOM      1  C   UNL     1     -32.602  23.077   9.059  1.00  0.00     0.000 C 
ENDROOT
BRANCH   1   2
ATOM      2  C   UNL     1     -33.428  23.046  10.348  1.00  0.00     0.000 C 
BRANCH   2   3
ATOM      3  C   UNL     1     -34.723  22.227  10.294  1.00  0.00     0.000 C 
BRANCH   3   4
ATOM      4  C   UNL     1     -34.499  20.718  10.425  1.00  0.00     0.000 C 
BRANCH   4   5
ATOM      5  C   UNL     1     -34.581  20.022   9.066  1.00  0.00     0.000 C 
BRANCH   5   6
ATOM      6  C   UNL     1     -33.302  19.266   8.682  1.00  0.00     0.006 C 
BRANCH   6   7
ATOM      7  C   UNL     1     -32.896  19.412   7.215  1.00  0.00     0.053 C 
BRANCH   7   8
ATOM      8  C   UNL     1     -31.855  18.422   6.756  1.00  0.00     0.041 C 
ATOM      9  O   UNL     1     -30.972  17.975   7.477  1.00  0.00    -0.550 OA
ATOM     10  O   UNL     1     -31.975  18.101   5.445  1.00  0.00    -0.550 OA
ENDBRANCH   7   8
ENDBRANCH   6   7
ENDBRANCH   5   6
ENDBRANCH   4   5
ENDBRANCH   3   4
ENDBRANCH   2   3
ENDBRANCH   1   2
BRANCH   1  11
ATOM     11  C   UNL     1     -32.487  24.470   8.436  1.00  0.00     0.000 C 
BRANCH  11  12
ATOM     12  C   UNL     1     -33.192  24.524   7.078  1.00  0.00    -0.000 C 
BRANCH  12  13
ATOM     13  C   UNL     1     -34.537  23.798   7.123  1.00  0.00    -0.000 C 
BRANCH  13  14
ATOM     14  C   UNL     1     -34.620  22.605   6.165  1.00  0.00    -0.000 C 
BRANCH  14  15
ATOM     15  C   UNL     1     -35.906  21.772   6.239  1.00  0.00    -0.000 C 
BRANCH  15  16
ATOM     16  C   UNL     1     -36.908  22.286   7.277  1.00  0.00    -0.000 C 
BRANCH  16  17
ATOM     17  C   UNL     1     -38.205  21.473   7.319  1.00  0.00    -0.003 C 
ATOM     18  C   UNL     1     -38.219  20.296   6.357  1.00  0.00     0.004 C 
ENDBRANCH  16  17
ENDBRANCH  15  16
ENDBRANCH  14  15
ENDBRANCH  13  14
ENDBRANCH  12  13
ENDBRANCH  11  12
ENDBRANCH   1  11
TORSDOF 14
ENDMDL
MODEL 19
REMARK VINA RESULT:    -5.698      2.459      5.190
REMARK INTER + INTRA:         -12.380
REMARK INTER:                 -10.090
REMARK INTRA:                  -2.290
REMARK UNBOUND:                -2.019
REMARK SMILES CCCCCCCCCCCCCCCC(=O)[O-]
REMARK SMILES IDX 9 1 10 2 11 3 12 4 13 5 14 6 15 7 16 8 17 9 18 10 8 11 7 12
REMARK SMILES IDX 6 13 5 14 4 15 3 16 2 17 1 18
REMARK H PARENT
REMARK INDEX MAP 4 1 6 2 8 3 10 4 12 5 14 6 16 7 18 8 2 9 1 10 3 11 5 12 7 13
REMARK INDEX MAP 9 14 11 15 13 16 15 17 17 18
ROOT
ATOM      1  C   UNL     1     -33.251  18.546   7.291  1.00  0.00     0.000 C 
ENDROOT
BRANCH   1   2
ATOM      2  C   UNL     1     -34.225  19.343   8.164  1.00  0.00     0.000 C 
BRANCH   2   3
ATOM      3  C   UNL     1     -33.815  20.787   8.477  1.00  0.00     0.000 C 
BRANCH   3   4
ATOM      4  C   UNL     1     -34.836  21.541   9.334  1.00  0.00     0.000 C 
BRANCH   4   5
ATOM      5  C   UNL     1     -35.198  22.890   8.711  1.00  0.00     0.000 C 
BRANCH   5   6
ATOM      6  C   UNL     1     -34.282  23.300   7.551  1.00  0.00     0.006 C 
BRANCH   6   7
ATOM      7  C   UNL     1     -33.352  24.473   7.861  1.00  0.00     0.053 C 
BRANCH   7   8
ATOM      8  C   UNL     1     -31.900  24.093   8.011  1.00  0.00     0.041 C 
ATOM      9  O   UNL     1     -31.105  24.700   8.718  1.00  0.00    -0.550 OA
ATOM     10  O   UNL     1     -31.553  23.025   7.253  1.00  0.00    -0.550 OA
ENDBRANCH   7   8
ENDBRANCH   6   7
ENDBRANCH   5   6
ENDBRANCH   4   5
ENDBRANCH   3   4
ENDBRANCH   2   3
ENDBRANCH   1   2
BRANCH   1  11
ATOM     11  C   UNL     1     -32.355  19.423   6.413  1.00  0.00     0.000 C 
BRANCH  11  12
ATOM     12  C   UNL     1     -32.381  18.950   4.957  1.00  0.00    -0.000 C 
BRANCH  12  13
ATOM     13  C   UNL     1     -32.862  20.062   4.023  1.00  0.00    -0.000 C 
BRANCH  13  14
ATOM     14  C   UNL     1     -33.850  21.030   4.682  1.00  0.00    -0.000 C 
BRANCH  14  15
ATOM     15  C   UNL     1     -35.335  20.672   4.545  1.00  0.00    -0.000 C 
BRANCH  15  16
ATOM     16  C   UNL     1     -36.232  21.383   5.563  1.00  0.00    -0.000 C 
BRANCH  16  17
ATOM     17  C   UNL     1     -37.192  20.436   6.289  1.00  0.00    -0.003 C 
ATOM     18  C   UNL     1     -38.251  21.154   7.109  1.00  0.00     0.004 C 
ENDBRANCH  16  17
ENDBRANCH  15  16
ENDBRANCH  14  15
ENDBRANCH  13  14
ENDBRANCH  12  13
ENDBRANCH  11  12
ENDBRANCH   1  11
TORSDOF 14
ENDMDL
MODEL 20
REMARK VINA RESULT:    -5.673      2.586      3.738
REMARK INTER + INTRA:         -12.334
REMARK INTER:                 -10.514
REMARK INTRA:                  -1.820
REMARK UNBOUND:                -2.019
REMARK SMILES CCCCCCCCCCCCCCCC(=O)[O-]
REMARK SMILES IDX 9 1 10 2 11 3 12 4 13 5 14 6 15 7 16 8 17 9 18 10 8 11 7 12
REMARK SMILES IDX 6 13 5 14 4 15 3 16 2 17 1 18
REMARK H PARENT
REMARK INDEX MAP 4 1 6 2 8 3 10 4 12 5 14 6 16 7 18 8 2 9 1 10 3 11 5 12 7 13
REMARK INDEX MAP 9 14 11 15 13 16 15 17 17 18
ROOT
ATOM      1  C   UNL     1     -33.805  24.840   7.521  1.00  0.00     0.000 C 
ENDROOT
BRANCH   1   2
ATOM      2  C   UNL     1     -32.413  24.257   7.262  1.00  0.00     0.000 C 
BRANCH   2   3
ATOM      3  C   UNL     1     -31.943  23.182   8.248  1.00  0.00     0.000 C 
BRANCH   3   4
ATOM      4  C   UNL     1     -31.794  21.795   7.617  1.00  0.00     0.000 C 
BRANCH   4   5
ATOM      5  C   UNL     1     -32.145  21.819   6.129  1.00  0.00     0.000 C 
BRANCH   5   6
ATOM      6  C   UNL     1     -32.659  20.477   5.593  1.00  0.00     0.006 C 
BRANCH   6   7
ATOM      7  C   UNL     1     -32.925  19.425   6.669  1.00  0.00     0.053 C 
BRANCH   7   8
ATOM      8  C   UNL     1     -31.811  18.425   6.853  1.00  0.00     0.041 C 
ATOM      9  O   UNL     1     -31.277  17.821   5.931  1.00  0.00    -0.550 OA
ATOM     10  O   UNL     1     -31.481  18.236   8.154  1.00  0.00    -0.550 OA
ENDBRANCH   7   8
ENDBRANCH   6   7
ENDBRANCH   5   6
ENDBRANCH   4   5
ENDBRANCH   3   4
ENDBRANCH   2   3
ENDBRANCH   1   2
BRANCH   1  11
ATOM     11  C   UNL     1     -34.934  24.062   6.840  1.00  0.00     0.000 C 
BRANCH  11  12
ATOM     12  C   UNL     1     -35.923  23.514   7.872  1.00  0.00    -0.000 C 
BRANCH  12  13
ATOM     13  C   UNL     1     -35.438  22.185   8.452  1.00  0.00    -0.000 C 
BRANCH  13  14
ATOM     14  C   UNL     1     -36.082  20.959   7.798  1.00  0.00    -0.000 C 
BRANCH  14  15
ATOM     15  C   UNL     1     -37.237  21.244   6.829  1.00  0.00    -0.000 C 
BRANCH  15  16
ATOM     16  C   UNL     1     -38.415  20.277   6.981  1.00  0.00    -0.000 C 
BRANCH  16  17
ATOM     17  C   UNL     1     -39.650  20.923   7.615  1.00  0.00    -0.003 C 
ATOM     18  C   UNL     1     -39.676  22.438   7.493  1.00  0.00     0.004 C 
ENDBRANCH  16  17
ENDBRANCH  15  16
ENDBRANCH  14  15
ENDBRANCH  13  14
ENDBRANCH  12  13
ENDBRANCH  11  12
ENDBRANCH   1  11
TORSDOF 14
ENDMDL
