MODEL 1
REMARK VINA RESULT:    -5.892      0.000      0.000
REMARK INTER + INTRA:         -13.161
REMARK INTER:                 -10.715
REMARK INTRA:                  -2.446
REMARK UNBOUND:                -2.446
REMARK SMILES CCCCCCCCCCCCCCCC(=O)[O-]
REMARK SMILES IDX 9 1 10 2 11 3 12 4 13 5 14 6 15 7 16 8 17 9 18 10 8 11 7 12
REMARK SMILES IDX 6 13 5 14 4 15 3 16 2 17 1 18
REMARK H PARENT
REMARK INDEX MAP 4 1 6 2 8 3 10 4 12 5 14 6 16 7 18 8 2 9 1 10 3 11 5 12 7 13
REMARK INDEX MAP 9 14 11 15 13 16 15 17 17 18
ROOT
ATOM      1  C   UNL     1     -34.079  19.560  10.041  1.00  0.00     0.000 C 
ENDROOT
BRANCH   1   2
ATOM      2  C   UNL     1     -34.926  20.818  10.254  1.00  0.00     0.000 C 
BRANCH   2   3
ATOM      3  C   UNL     1     -34.260  22.146   9.877  1.00  0.00     0.000 C 
BRANCH   3   4
ATOM      4  C   UNL     1     -35.078  22.984   8.891  1.00  0.00     0.000 C 
BRANCH   4   5
ATOM      5  C   UNL     1     -36.077  22.120   8.121  1.00  0.00     0.000 C 
BRANCH   5   6
ATOM      6  C   UNL     1     -35.892  22.169   6.599  1.00  0.00     0.006 C 
BRANCH   6   7
ATOM      7  C   UNL     1     -36.253  20.873   5.873  1.00  0.00     0.053 C 
BRANCH   7   8
ATOM      8  C   UNL     1     -35.869  20.848   4.415  1.00  0.00     0.041 C 
ATOM      9  O   UNL     1     -36.525  20.288   3.546  1.00  0.00    -0.550 OA
ATOM     10  O   UNL     1     -34.698  21.484   4.167  1.00  0.00    -0.550 OA
ENDBRANCH   7   8
ENDBRANCH   6   7
ENDBRANCH   5   6
ENDBRANCH   4   5
ENDBRANCH   3   4
ENDBRANCH   2   3
ENDBRANCH   1   2
BRANCH   1  11
ATOM     11  C   UNL     1     -33.820  19.236   8.567  1.00  0.00     0.000 C 
BRANCH  11  12
ATOM     12  C   UNL     1     -32.337  18.948   8.321  1.00  0.00    -0.000 C 
BRANCH  12  13
ATOM     13  C   UNL     1     -31.825  19.698   7.089  1.00  0.00    -0.000 C 
BRANCH  13  14
ATOM     14  C   UNL     1     -32.556  21.018   6.830  1.00  0.00    -0.000 C 
BRANCH  14  15
ATOM     15  C   UNL     1     -31.791  22.295   7.198  1.00  0.00    -0.000 C 
BRANCH  15  16
ATOM     16  C   UNL     1     -32.265  23.534   6.434  1.00  0.00    -0.000 C 
BRANCH  16  17
ATOM     17  C   UNL     1     -32.254  24.810   7.282  1.00  0.00    -0.003 C 
ATOM     18  C   UNL     1     -31.690  24.607   8.679  1.00  0.00     0.004 C 
ENDBRANCH  16  17
ENDBRANCH  15  16
ENDBRANCH  14  15
ENDBRANCH  13  14
ENDBRANCH  12  13
ENDBRANCH  11  12
ENDBRANCH   1  11
TORSDOF 14
ENDMDL
MODEL 2
REMARK VINA RESULT:    -5.790      2.479      4.546
REMARK INTER + INTRA:         -12.976
REMARK INTER:                 -11.044
REMARK INTRA:                  -1.932
REMARK UNBOUND:                -2.446
REMARK SMILES CCCCCCCCCCCCCCCC(=O)[O-]
REMARK SMILES IDX 9 1 10 2 11 3 12 4 13 5 14 6 15 7 16 8 17 9 18 10 8 11 7 12
REMARK SMILES IDX 6 13 5 14 4 15 3 16 2 17 1 18
REMARK H PARENT
REMARK INDEX MAP 4 1 6 2 8 3 10 4 12 5 14 6 16 7 18 8 2 9 1 10 3 11 5 12 7 13
REMARK INDEX MAP 9 14 11 15 13 16 15 17 17 18
ROOT
ATOM      1  C   UNL     1     -36.628  20.945   6.864  1.00  0.00     0.000 C 
ENDROOT
BRANCH   1   2
ATOM      2  C   UNL     1     -37.018  20.792   5.391  1.00  0.00     0.000 C 
BRANCH   2   3
ATOM      3  C   UNL     1     -35.863  20.845   4.384  1.00  0.00     0.000 C 
BRANCH   3   4
ATOM      4  C   UNL     1     -34.496  21.077   5.032  1.00  0.00     0.000 C 
BRANCH   4   5
ATOM      5  C   UNL     1     -33.372  20.457   4.200  1.00  0.00     0.000 C 
BRANCH   5   6
ATOM      6  C   UNL     1     -32.542  19.417   4.962  1.00  0.00     0.006 C 
BRANCH   6   7
ATOM      7  C   UNL     1     -32.734  19.438   6.478  1.00  0.00     0.053 C 
BRANCH   7   8
ATOM      8  C   UNL     1     -31.814  18.514   7.236  1.00  0.00     0.041 C 
ATOM      9  O   UNL     1     -31.764  18.451   8.458  1.00  0.00    -0.550 OA
ATOM     10  O   UNL     1     -31.017  17.779   6.422  1.00  0.00    -0.550 OA
ENDBRANCH   7   8
ENDBRANCH   6   7
ENDBRANCH   5   6
ENDBRANCH   4   5
ENDBRANCH   3   4
ENDBRANCH   2   3
ENDBRANCH   1   2
BRANCH   1  11
ATOM     11  C   UNL     1     -37.038  22.289   7.471  1.00  0.00     0.000 C 
BRANCH  11  12
ATOM     12  C   UNL     1     -35.822  23.199   7.662  1.00  0.00    -0.000 C 
BRANCH  12  13
ATOM     13  C   UNL     1     -35.222  23.036   9.059  1.00  0.00    -0.000 C 
BRANCH  13  14
ATOM     14  C   UNL     1     -33.911  22.244   9.073  1.00  0.00    -0.000 C 
BRANCH  14  15
ATOM     15  C   UNL     1     -32.625  23.071   8.949  1.00  0.00    -0.000 C 
BRANCH  15  16
ATOM     16  C   UNL     1     -31.924  22.912   7.597  1.00  0.00    -0.000 C 
BRANCH  16  17
ATOM     17  C   UNL     1     -32.421  23.900   6.537  1.00  0.00    -0.003 C 
ATOM     18  C   UNL     1     -32.598  25.316   7.060  1.00  0.00     0.004 C 
ENDBRANCH  16  17
ENDBRANCH  15  16
ENDBRANCH  14  15
ENDBRANCH  13  14
ENDBRANCH  12  13
ENDBRANCH  11  12
ENDBRANCH   1  11
TORSDOF 14
ENDMDL
MODEL 3
REMARK VINA RESULT:    -5.750      1.423      4.252
REMARK INTER + INTRA:         -12.903
REMARK INTER:                 -10.681
REMARK INTRA:                  -2.222
REMARK UNBOUND:                -2.446
REMARK SMILES CCCCCCCCCCCCCCCC(=O)[O-]
REMARK SMILES IDX 9 1 10 2 11 3 12 4 13 5 14 6 15 7 16 8 17 9 18 10 8 11 7 12
REMARK SMILES IDX 6 13 5 14 4 15 3 16 2 17 1 18
REMARK H PARENT
REMARK INDEX MAP 4 1 6 2 8 3 10 4 12 5 14 6 16 7 18 8 2 9 1 10 3 11 5 12 7 13
REMARK INDEX MAP 9 14 11 15 13 16 15 17 17 18
ROOT
ATOM      1  C   UNL     1     -31.900  22.817   7.091  1.00  0.00     0.000 C 
ENDROOT
BRANCH   1   2
ATOM      2  C   UNL     1     -31.775  21.648   8.073  1.00  0.00     0.000 C 
BRANCH   2   3
ATOM      3  C   UNL     1     -31.092  20.388   7.530  1.00  0.00     0.000 C 
BRANCH   3   4
ATOM      4  C   UNL     1     -31.854  19.096   7.839  1.00  0.00     0.000 C 
BRANCH   4   5
ATOM      5  C   UNL     1     -32.375  18.437   6.561  1.00  0.00     0.000 C 
BRANCH   5   6
ATOM      6  C   UNL     1     -32.700  19.433   5.441  1.00  0.00     0.006 C 
BRANCH   6   7
ATOM      7  C   UNL     1     -34.112  20.015   5.500  1.00  0.00     0.053 C 
BRANCH   7   8
ATOM      8  C   UNL     1     -34.445  20.959   4.371  1.00  0.00     0.041 C 
ATOM      9  O   UNL     1     -35.471  21.625   4.318  1.00  0.00    -0.550 OA
ATOM     10  O   UNL     1     -33.501  20.970   3.398  1.00  0.00    -0.550 OA
ENDBRANCH   7   8
ENDBRANCH   6   7
ENDBRANCH   5   6
ENDBRANCH   4   5
ENDBRANCH   3   4
ENDBRANCH   2   3
ENDBRANCH   1   2
BRANCH   1  11
ATOM     11  C   UNL     1     -32.043  24.179   7.773  1.00  0.00     0.000 C 
BRANCH  11  12
ATOM     12  C   UNL     1     -33.180  24.991   7.147  1.00  0.00    -0.000 C 
BRANCH  12  13
ATOM     13  C   UNL     1     -34.279  24.076   6.604  1.00  0.00    -0.000 C 
BRANCH  13  14
ATOM     14  C   UNL     1     -35.425  23.845   7.593  1.00  0.00    -0.000 C 
BRANCH  14  15
ATOM     15  C   UNL     1     -35.816  22.382   7.840  1.00  0.00    -0.000 C 
BRANCH  15  16
ATOM     16  C   UNL     1     -35.135  21.766   9.066  1.00  0.00    -0.000 C 
BRANCH  16  17
ATOM     17  C   UNL     1     -34.660  22.809  10.082  1.00  0.00    -0.003 C 
ATOM     18  C   UNL     1     -33.880  22.215  11.244  1.00  0.00     0.004 C 
ENDBRANCH  16  17
ENDBRANCH  15  16
ENDBRANCH  14  15
ENDBRANCH  13  14
ENDBRANCH  12  13
ENDBRANCH  11  12
ENDBRANCH   1  11
TORSDOF 14
ENDMDL
MODEL 4
REMARK VINA RESULT:    -5.636      1.263      3.338
REMARK INTER + INTRA:         -12.695
REMARK INTER:                 -10.680
REMARK INTRA:                  -2.015
REMARK UNBOUND:                -2.446
REMARK SMILES CCCCCCCCCCCCCCCC(=O)[O-]
REMARK SMILES IDX 9 1 10 2 11 3 12 4 13 5 14 6 15 7 16 8 17 9 18 10 8 11 7 12
REMARK SMILES IDX 6 13 5 14 4 15 3 16 2 17 1 18
REMARK H PARENT
REMARK INDEX MAP 4 1 6 2 8 3 10 4 12 5 14 6 16 7 18 8 2 9 1 10 3 11 5 12 7 13
REMARK INDEX MAP 9 14 11 15 13 16 15 17 17 18
ROOT
ATOM      1  C   UNL     1     -34.756  20.432  10.257  1.00  0.00     0.000 C 
ENDROOT
BRANCH   1   2
ATOM      2  C   UNL     1     -33.930  19.320   9.603  1.00  0.00     0.000 C 
BRANCH   2   3
ATOM      3  C   UNL     1     -34.108  19.156   8.089  1.00  0.00     0.000 C 
BRANCH   3   4
ATOM      4  C   UNL     1     -32.993  18.342   7.426  1.00  0.00     0.000 C 
BRANCH   4   5
ATOM      5  C   UNL     1     -32.150  19.211   6.492  1.00  0.00     0.000 C 
BRANCH   5   6
ATOM      6  C   UNL     1     -32.413  20.715   6.641  1.00  0.00     0.006 C 
BRANCH   6   7
ATOM      7  C   UNL     1     -32.608  21.459   5.320  1.00  0.00     0.053 C 
BRANCH   7   8
ATOM      8  C   UNL     1     -33.576  20.798   4.370  1.00  0.00     0.041 C 
ATOM      9  O   UNL     1     -34.711  20.459   4.678  1.00  0.00    -0.550 OA
ATOM     10  O   UNL     1     -33.045  20.586   3.141  1.00  0.00    -0.550 OA
ENDBRANCH   7   8
ENDBRANCH   6   7
ENDBRANCH   5   6
ENDBRANCH   4   5
ENDBRANCH   3   4
ENDBRANCH   2   3
ENDBRANCH   1   2
BRANCH   1  11
ATOM     11  C   UNL     1     -34.104  21.813  10.170  1.00  0.00     0.000 C 
BRANCH  11  12
ATOM     12  C   UNL     1     -35.048  22.828   9.520  1.00  0.00    -0.000 C 
BRANCH  12  13
ATOM     13  C   UNL     1     -35.763  22.222   8.310  1.00  0.00    -0.000 C 
BRANCH  13  14
ATOM     14  C   UNL     1     -35.490  22.970   7.002  1.00  0.00    -0.000 C 
BRANCH  14  15
ATOM     15  C   UNL     1     -34.921  24.387   7.144  1.00  0.00    -0.000 C 
BRANCH  15  16
ATOM     16  C   UNL     1     -33.431  24.484   6.799  1.00  0.00    -0.000 C 
BRANCH  16  17
ATOM     17  C   UNL     1     -32.642  25.367   7.770  1.00  0.00    -0.003 C 
ATOM     18  C   UNL     1     -31.800  24.581   8.762  1.00  0.00     0.004 C 
ENDBRANCH  16  17
ENDBRANCH  15  16
ENDBRANCH  14  15
ENDBRANCH  13  14
ENDBRANCH  12  13
ENDBRANCH  11  12
ENDBRANCH   1  11
TORSDOF 14
ENDMDL
MODEL 5
REMARK VINA RESULT:    -5.626      2.328      3.674
REMARK INTER + INTRA:         -12.678
REMARK INTER:                 -10.397
REMARK INTRA:                  -2.281
REMARK UNBOUND:                -2.446
REMARK SMILES CCCCCCCCCCCCCCCC(=O)[O-]
REMARK SMILES IDX 9 1 10 2 11 3 12 4 13 5 14 6 15 7 16 8 17 9 18 10 8 11 7 12
REMARK SMILES IDX 6 13 5 14 4 15 3 16 2 17 1 18
REMARK H PARENT
REMARK INDEX MAP 4 1 6 2 8 3 10 4 12 5 14 6 16 7 18 8 2 9 1 10 3 11 5 12 7 13
REMARK INDEX MAP 9 14 11 15 13 16 15 17 17 18
ROOT
ATOM      1  C   UNL     1     -33.247  20.283   7.107  1.00  0.00     0.000 C 
ENDROOT
BRANCH   1   2
ATOM      2  C   UNL     1     -33.492  19.672   5.724  1.00  0.00     0.000 C 
BRANCH   2   3
ATOM      3  C   UNL     1     -33.912  20.653   4.624  1.00  0.00     0.000 C 
BRANCH   3   4
ATOM      4  C   UNL     1     -35.077  21.562   5.025  1.00  0.00     0.000 C 
BRANCH   4   5
ATOM      5  C   UNL     1     -36.373  20.765   5.192  1.00  0.00     0.000 C 
BRANCH   5   6
ATOM      6  C   UNL     1     -37.216  21.204   6.395  1.00  0.00     0.006 C 
BRANCH   6   7
ATOM      7  C   UNL     1     -38.220  20.158   6.880  1.00  0.00     0.053 C 
BRANCH   7   8
ATOM      8  C   UNL     1     -39.550  20.725   7.313  1.00  0.00     0.041 C 
ATOM      9  O   UNL     1     -40.368  20.110   7.984  1.00  0.00    -0.550 OA
ATOM     10  O   UNL     1     -39.762  21.981   6.852  1.00  0.00    -0.550 OA
ENDBRANCH   7   8
ENDBRANCH   6   7
ENDBRANCH   5   6
ENDBRANCH   4   5
ENDBRANCH   3   4
ENDBRANCH   2   3
ENDBRANCH   1   2
BRANCH   1  11
ATOM     11  C   UNL     1     -34.046  19.611   8.226  1.00  0.00     0.000 C 
BRANCH  11  12
ATOM     12  C   UNL     1     -34.772  20.650   9.084  1.00  0.00    -0.000 C 
BRANCH  12  13
ATOM     13  C   UNL     1     -34.171  22.043   8.892  1.00  0.00    -0.000 C 
BRANCH  13  14
ATOM     14  C   UNL     1     -35.220  23.134   8.652  1.00  0.00    -0.000 C 
BRANCH  14  15
ATOM     15  C   UNL     1     -34.880  24.167   7.571  1.00  0.00    -0.000 C 
BRANCH  15  16
ATOM     16  C   UNL     1     -33.494  23.967   6.949  1.00  0.00    -0.000 C 
BRANCH  16  17
ATOM     17  C   UNL     1     -32.494  25.060   7.338  1.00  0.00    -0.003 C 
ATOM     18  C   UNL     1     -31.828  24.825   8.684  1.00  0.00     0.004 C 
ENDBRANCH  16  17
ENDBRANCH  15  16
ENDBRANCH  14  15
ENDBRANCH  13  14
ENDBRANCH  12  13
ENDBRANCH  11  12
ENDBRANCH   1  11
TORSDOF 14
ENDMDL
MODEL 6
REMARK VINA RESULT:    -5.624      2.004      4.272
REMARK INTER + INTRA:         -12.674
REMARK INTER:                 -10.465
REMARK INTRA:                  -2.209
REMARK UNBOUND:                -2.446
REMARK SMILES CCCCCCCCCCCCCCCC(=O)[O-]
REMARK SMILES IDX 9 1 10 2 11 3 12 4 13 5 14 6 15 7 16 8 17 9 18 10 8 11 7 12
REMARK SMILES IDX 6 13 5 14 4 15 3 16 2 17 1 18
REMARK H PARENT
REMARK INDEX MAP 4 1 6 2 8 3 10 4 12 5 14 6 16 7 18 8 2 9 1 10 3 11 5 12 7 13
REMARK INDEX MAP 9 14 11 15 13 16 15 17 17 18
ROOT
ATOM      1  C   UNL     1     -31.915  21.438   7.177  1.00  0.00     0.000 C 
ENDROOT
BRANCH   1   2
ATOM      2  C   UNL     1     -32.743  20.467   6.329  1.00  0.00     0.000 C 
BRANCH   2   3
ATOM      3  C   UNL     1     -32.865  20.815   4.841  1.00  0.00     0.000 C 
BRANCH   3   4
ATOM      4  C   UNL     1     -34.247  20.513   4.254  1.00  0.00     0.000 C 
BRANCH   4   5
ATOM      5  C   UNL     1     -35.347  21.271   4.998  1.00  0.00     0.000 C 
BRANCH   5   6
ATOM      6  C   UNL     1     -36.750  20.692   4.783  1.00  0.00     0.006 C 
BRANCH   6   7
ATOM      7  C   UNL     1     -37.566  20.514   6.063  1.00  0.00     0.053 C 
BRANCH   7   8
ATOM      8  C   UNL     1     -39.036  20.823   5.914  1.00  0.00     0.041 C 
ATOM      9  O   UNL     1     -39.641  21.620   6.618  1.00  0.00    -0.550 OA
ATOM     10  O   UNL     1     -39.629  20.096   4.935  1.00  0.00    -0.550 OA
ENDBRANCH   7   8
ENDBRANCH   6   7
ENDBRANCH   5   6
ENDBRANCH   4   5
ENDBRANCH   3   4
ENDBRANCH   2   3
ENDBRANCH   1   2
BRANCH   1  11
ATOM     11  C   UNL     1     -31.907  22.871   6.638  1.00  0.00     0.000 C 
BRANCH  11  12
ATOM     12  C   UNL     1     -32.070  23.885   7.773  1.00  0.00    -0.000 C 
BRANCH  12  13
ATOM     13  C   UNL     1     -33.313  24.753   7.565  1.00  0.00    -0.000 C 
BRANCH  13  14
ATOM     14  C   UNL     1     -34.565  23.950   7.199  1.00  0.00    -0.000 C 
BRANCH  14  15
ATOM     15  C   UNL     1     -35.380  23.403   8.377  1.00  0.00    -0.000 C 
BRANCH  15  16
ATOM     16  C   UNL     1     -35.190  21.901   8.607  1.00  0.00    -0.000 C 
BRANCH  16  17
ATOM     17  C   UNL     1     -34.768  21.557  10.039  1.00  0.00    -0.003 C 
ATOM     18  C   UNL     1     -33.984  22.663  10.726  1.00  0.00     0.004 C 
ENDBRANCH  16  17
ENDBRANCH  15  16
ENDBRANCH  14  15
ENDBRANCH  13  14
ENDBRANCH  12  13
ENDBRANCH  11  12
ENDBRANCH   1  11
TORSDOF 14
ENDMDL
MODEL 7
REMARK VINA RESULT:    -5.621      2.387      5.356
REMARK INTER + INTRA:         -12.668
REMARK INTER:                 -10.596
REMARK INTRA:                  -2.072
REMARK UNBOUND:                -2.446
REMARK SMILES CCCCCCCCCCCCCCCC(=O)[O-]
REMARK SMILES IDX 9 1 10 2 11 3 12 4 13 5 14 6 15 7 16 8 17 9 18 10 8 11 7 12
REMARK SMILES IDX 6 13 5 14 4 15 3 16 2 17 1 18
REMARK H PARENT
REMARK INDEX MAP 4 1 6 2 8 3 10 4 12 5 14 6 16 7 18 8 2 9 1 10 3 11 5 12 7 13
REMARK INDEX MAP 9 14 11 15 13 16 15 17 17 18
ROOT
ATOM      1  C   UNL     1     -32.502  23.338   9.059  1.00  0.00     0.000 C 
ENDROOT
BRANCH   1   2
ATOM      2  C   UNL     1     -32.811  24.298   7.906  1.00  0.00     0.000 C 
BRANCH   2   3
ATOM      3  C   UNL     1     -32.338  23.851   6.518  1.00  0.00     0.000 C 
BRANCH   3   4
ATOM      4  C   UNL     1     -31.966  22.368   6.446  1.00  0.00     0.000 C 
BRANCH   4   5
ATOM      5  C   UNL     1     -32.661  21.675   5.273  1.00  0.00     0.000 C 
BRANCH   5   6
ATOM      6  C   UNL     1     -32.710  20.147   5.399  1.00  0.00     0.006 C 
BRANCH   6   7
ATOM      7  C   UNL     1     -32.856  19.633   6.831  1.00  0.00     0.053 C 
BRANCH   7   8
ATOM      8  C   UNL     1     -31.839  18.592   7.226  1.00  0.00     0.041 C 
ATOM      9  O   UNL     1     -31.466  18.403   8.377  1.00  0.00    -0.550 OA
ATOM     10  O   UNL     1     -31.351  17.903   6.165  1.00  0.00    -0.550 OA
ENDBRANCH   7   8
ENDBRANCH   6   7
ENDBRANCH   5   6
ENDBRANCH   4   5
ENDBRANCH   3   4
ENDBRANCH   2   3
ENDBRANCH   1   2
BRANCH   1  11
ATOM     11  C   UNL     1     -33.751  22.798   9.760  1.00  0.00     0.000 C 
BRANCH  11  12
ATOM     12  C   UNL     1     -35.007  23.065   8.927  1.00  0.00    -0.000 C 
BRANCH  12  13
ATOM     13  C   UNL     1     -35.511  21.785   8.258  1.00  0.00    -0.000 C 
BRANCH  13  14
ATOM     14  C   UNL     1     -36.029  22.003   6.834  1.00  0.00    -0.000 C 
BRANCH  14  15
ATOM     15  C   UNL     1     -36.412  20.737   6.057  1.00  0.00    -0.000 C 
BRANCH  15  16
ATOM     16  C   UNL     1     -37.855  20.749   5.543  1.00  0.00    -0.000 C 
BRANCH  16  17
ATOM     17  C   UNL     1     -38.771  19.775   6.290  1.00  0.00    -0.003 C 
ATOM     18  C   UNL     1     -39.403  20.369   7.538  1.00  0.00     0.004 C 
ENDBRANCH  16  17
ENDBRANCH  15  16
ENDBRANCH  14  15
ENDBRANCH  13  14
ENDBRANCH  12  13
ENDBRANCH  11  12
ENDBRANCH   1  11
TORSDOF 14
ENDMDL
MODEL 8
REMARK VINA RESULT:    -5.618      1.694      2.227
REMARK INTER + INTRA:         -12.662
REMARK INTER:                 -10.170
REMARK INTRA:                  -2.492
REMARK UNBOUND:                -2.446
REMARK SMILES CCCCCCCCCCCCCCCC(=O)[O-]
REMARK SMILES IDX 9 1 10 2 11 3 12 4 13 5 14 6 15 7 16 8 17 9 18 10 8 11 7 12
REMARK SMILES IDX 6 13 5 14 4 15 3 16 2 17 1 18
REMARK H PARENT
REMARK INDEX MAP 4 1 6 2 8 3 10 4 12 5 14 6 16 7 18 8 2 9 1 10 3 11 5 12 7 13
REMARK INDEX MAP 9 14 11 15 13 16 15 17 17 18
ROOT
ATOM      1  C   UNL     1     -35.159  21.103   9.653  1.00  0.00     0.000 C 
ENDROOT
BRANCH   1   2
ATOM      2  C   UNL     1     -34.732  22.573   9.587  1.00  0.00     0.000 C 
BRANCH   2   3
ATOM      3  C   UNL     1     -35.277  23.375   8.400  1.00  0.00     0.000 C 
BRANCH   3   4
ATOM      4  C   UNL     1     -36.455  22.700   7.693  1.00  0.00     0.000 C 
BRANCH   4   5
ATOM      5  C   UNL     1     -36.045  22.149   6.327  1.00  0.00     0.000 C 
BRANCH   5   6
ATOM      6  C   UNL     1     -36.594  20.747   6.036  1.00  0.00     0.006 C 
BRANCH   6   7
ATOM      7  C   UNL     1     -37.804  20.352   6.882  1.00  0.00     0.053 C 
BRANCH   7   8
ATOM      8  C   UNL     1     -39.137  20.638   6.236  1.00  0.00     0.041 C 
ATOM      9  O   UNL     1     -39.653  19.920   5.388  1.00  0.00    -0.550 OA
ATOM     10  O   UNL     1     -39.694  21.796   6.666  1.00  0.00    -0.550 OA
ENDBRANCH   7   8
ENDBRANCH   6   7
ENDBRANCH   5   6
ENDBRANCH   4   5
ENDBRANCH   3   4
ENDBRANCH   2   3
ENDBRANCH   1   2
BRANCH   1  11
ATOM     11  C   UNL     1     -33.993  20.119   9.529  1.00  0.00     0.000 C 
BRANCH  11  12
ATOM     12  C   UNL     1     -33.911  19.541   8.114  1.00  0.00    -0.000 C 
BRANCH  12  13
ATOM     13  C   UNL     1     -32.534  19.788   7.495  1.00  0.00    -0.000 C 
BRANCH  13  14
ATOM     14  C   UNL     1     -32.490  21.007   6.568  1.00  0.00    -0.000 C 
BRANCH  14  15
ATOM     15  C   UNL     1     -31.897  22.287   7.169  1.00  0.00    -0.000 C 
BRANCH  15  16
ATOM     16  C   UNL     1     -32.372  23.566   6.472  1.00  0.00    -0.000 C 
BRANCH  16  17
ATOM     17  C   UNL     1     -31.994  24.843   7.228  1.00  0.00    -0.003 C 
ATOM     18  C   UNL     1     -31.851  24.644   8.728  1.00  0.00     0.004 C 
ENDBRANCH  16  17
ENDBRANCH  15  16
ENDBRANCH  14  15
ENDBRANCH  13  14
ENDBRANCH  12  13
ENDBRANCH  11  12
ENDBRANCH   1  11
TORSDOF 14
ENDMDL
MODEL 9
REMARK VINA RESULT:    -5.586      2.631      5.058
REMARK INTER + INTRA:         -12.604
REMARK INTER:                 -10.270
REMARK INTRA:                  -2.334
REMARK UNBOUND:                -2.446
REMARK SMILES CCCCCCCCCCCCCCCC(=O)[O-]
REMARK SMILES IDX 9 1 10 2 11 3 12 4 13 5 14 6 15 7 16 8 17 9 18 10 8 11 7 12
REMARK SMILES IDX 6 13 5 14 4 15 3 16 2 17 1 18
REMARK H PARENT
REMARK INDEX MAP 4 1 6 2 8 3 10 4 12 5 14 6 16 7 18 8 2 9 1 10 3 11 5 12 7 13
REMARK INDEX MAP 9 14 11 15 13 16 15 17 17 18
ROOT
ATOM      1  C   UNL     1     -32.247  23.403   6.506  1.00  0.00     0.000 C 
ENDROOT
BRANCH   1   2
ATOM      2  C   UNL     1     -33.220  24.267   7.315  1.00  0.00     0.000 C 
BRANCH   2   3
ATOM      3  C   UNL     1     -34.693  24.184   6.900  1.00  0.00     0.000 C 
BRANCH   3   4
ATOM      4  C   UNL     1     -35.605  23.612   7.989  1.00  0.00     0.000 C 
BRANCH   4   5
ATOM      5  C   UNL     1     -34.795  22.910   9.081  1.00  0.00     0.000 C 
BRANCH   5   6
ATOM      6  C   UNL     1     -35.074  21.405   9.185  1.00  0.00     0.006 C 
BRANCH   6   7
ATOM      7  C   UNL     1     -34.890  20.821  10.585  1.00  0.00     0.053 C 
BRANCH   7   8
ATOM      8  C   UNL     1     -34.183  19.489  10.617  1.00  0.00     0.041 C 
ATOM      9  O   UNL     1     -33.851  18.916  11.646  1.00  0.00    -0.550 OA
ATOM     10  O   UNL     1     -33.920  19.003   9.379  1.00  0.00    -0.550 OA
ENDBRANCH   7   8
ENDBRANCH   6   7
ENDBRANCH   5   6
ENDBRANCH   4   5
ENDBRANCH   3   4
ENDBRANCH   2   3
ENDBRANCH   1   2
BRANCH   1  11
ATOM     11  C   UNL     1     -31.712  22.195   7.278  1.00  0.00     0.000 C 
BRANCH  11  12
ATOM     12  C   UNL     1     -32.245  20.886   6.689  1.00  0.00    -0.000 C 
BRANCH  12  13
ATOM     13  C   UNL     1     -33.139  21.148   5.476  1.00  0.00    -0.000 C 
BRANCH  13  14
ATOM     14  C   UNL     1     -34.533  20.526   5.597  1.00  0.00    -0.000 C 
BRANCH  14  15
ATOM     15  C   UNL     1     -35.661  21.256   4.859  1.00  0.00    -0.000 C 
BRANCH  15  16
ATOM     16  C   UNL     1     -37.041  20.627   5.076  1.00  0.00    -0.000 C 
BRANCH  16  17
ATOM     17  C   UNL     1     -37.667  20.993   6.425  1.00  0.00    -0.003 C 
ATOM     18  C   UNL     1     -38.562  19.904   6.996  1.00  0.00     0.004 C 
ENDBRANCH  16  17
ENDBRANCH  15  16
ENDBRANCH  14  15
ENDBRANCH  13  14
ENDBRANCH  12  13
ENDBRANCH  11  12
ENDBRANCH   1  11
TORSDOF 14
ENDMDL
MODEL 10
REMARK VINA RESULT:    -5.574      2.067      5.195
REMARK INTER + INTRA:         -12.582
REMARK INTER:                 -10.475
REMARK INTRA:                  -2.107
REMARK UNBOUND:                -2.446
REMARK SMILES CCCCCCCCCCCCCCCC(=O)[O-]
REMARK SMILES IDX 9 1 10 2 11 3 12 4 13 5 14 6 15 7 16 8 17 9 18 10 8 11 7 12
REMARK SMILES IDX 6 13 5 14 4 15 3 16 2 17 1 18
REMARK H PARENT
REMARK INDEX MAP 4 1 6 2 8 3 10 4 12 5 14 6 16 7 18 8 2 9 1 10 3 11 5 12 7 13
REMARK INDEX MAP 9 14 11 15 13 16 15 17 17 18
ROOT
ATOM      1  C   UNL     1     -35.416  23.041   8.364  1.00  0.00     0.000 C 
ENDROOT
BRANCH   1   2
ATOM      2  C   UNL     1     -35.189  24.159   7.343  1.00  0.00     0.000 C 
BRANCH   2   3
ATOM      3  C   UNL     1     -33.727  24.531   7.071  1.00  0.00     0.000 C 
BRANCH   3   4
ATOM      4  C   UNL     1     -32.741  23.897   8.056  1.00  0.00     0.000 C 
BRANCH   4   5
ATOM      5  C   UNL     1     -31.759  22.968   7.341  1.00  0.00     0.000 C 
BRANCH   5   6
ATOM      6  C   UNL     1     -32.315  22.360   6.047  1.00  0.00     0.006 C 
BRANCH   6   7
ATOM      7  C   UNL     1     -32.396  20.833   6.048  1.00  0.00     0.053 C 
BRANCH   7   8
ATOM      8  C   UNL     1     -32.725  20.226   4.707  1.00  0.00     0.041 C 
ATOM      9  O   UNL     1     -32.460  19.072   4.397  1.00  0.00    -0.550 OA
ATOM     10  O   UNL     1     -33.318  21.104   3.862  1.00  0.00    -0.550 OA
ENDBRANCH   7   8
ENDBRANCH   6   7
ENDBRANCH   5   6
ENDBRANCH   4   5
ENDBRANCH   3   4
ENDBRANCH   2   3
ENDBRANCH   1   2
BRANCH   1  11
ATOM     11  C   UNL     1     -35.936  21.741   7.746  1.00  0.00     0.000 C 
BRANCH  11  12
ATOM     12  C   UNL     1     -36.044  21.860   6.224  1.00  0.00    -0.000 C 
BRANCH  12  13
ATOM     13  C   UNL     1     -36.337  20.504   5.581  1.00  0.00    -0.000 C 
BRANCH  13  14
ATOM     14  C   UNL     1     -37.520  20.531   4.609  1.00  0.00    -0.000 C 
BRANCH  14  15
ATOM     15  C   UNL     1     -38.915  20.491   5.246  1.00  0.00    -0.000 C 
BRANCH  15  16
ATOM     16  C   UNL     1     -38.936  19.832   6.629  1.00  0.00    -0.000 C 
BRANCH  16  17
ATOM     17  C   UNL     1     -39.646  20.677   7.691  1.00  0.00    -0.003 C 
ATOM     18  C   UNL     1     -39.604  22.171   7.409  1.00  0.00     0.004 C 
ENDBRANCH  16  17
ENDBRANCH  15  16
ENDBRANCH  14  15
ENDBRANCH  13  14
ENDBRANCH  12  13
ENDBRANCH  11  12
ENDBRANCH   1  11
TORSDOF 14
ENDMDL
MODEL 11
REMARK VINA RESULT:    -5.564      1.476      4.067
REMARK INTER + INTRA:         -12.564
REMARK INTER:                 -10.573
REMARK INTRA:                  -1.991
REMARK UNBOUND:                -2.446
REMARK SMILES CCCCCCCCCCCCCCCC(=O)[O-]
REMARK SMILES IDX 9 1 10 2 11 3 12 4 13 5 14 6 15 7 16 8 17 9 18 10 8 11 7 12
REMARK SMILES IDX 6 13 5 14 4 15 3 16 2 17 1 18
REMARK H PARENT
REMARK INDEX MAP 4 1 6 2 8 3 10 4 12 5 14 6 16 7 18 8 2 9 1 10 3 11 5 12 7 13
REMARK INDEX MAP 9 14 11 15 13 16 15 17 17 18
ROOT
ATOM      1  C   UNL     1     -34.583  22.000   9.987  1.00  0.00     0.000 C 
ENDROOT
BRANCH   1   2
ATOM      2  C   UNL     1     -34.463  20.691  10.773  1.00  0.00     0.000 C 
BRANCH   2   3
ATOM      3  C   UNL     1     -34.068  19.455   9.957  1.00  0.00     0.000 C 
BRANCH   3   4
ATOM      4  C   UNL     1     -34.309  19.611   8.453  1.00  0.00     0.000 C 
BRANCH   4   5
ATOM      5  C   UNL     1     -33.281  18.824   7.639  1.00  0.00     0.000 C 
BRANCH   5   6
ATOM      6  C   UNL     1     -32.172  19.695   7.037  1.00  0.00     0.006 C 
BRANCH   6   7
ATOM      7  C   UNL     1     -32.658  20.730   6.022  1.00  0.00     0.053 C 
BRANCH   7   8
ATOM      8  C   UNL     1     -32.836  20.195   4.623  1.00  0.00     0.041 C 
ATOM      9  O   UNL     1     -32.334  19.153   4.222  1.00  0.00    -0.550 OA
ATOM     10  O   UNL     1     -33.585  21.008   3.840  1.00  0.00    -0.550 OA
ENDBRANCH   7   8
ENDBRANCH   6   7
ENDBRANCH   5   6
ENDBRANCH   4   5
ENDBRANCH   3   4
ENDBRANCH   2   3
ENDBRANCH   1   2
BRANCH   1  11
ATOM     11  C   UNL     1     -33.397  22.947  10.187  1.00  0.00     0.000 C 
BRANCH  11  12
ATOM     12  C   UNL     1     -32.629  23.149   8.879  1.00  0.00    -0.000 C 
BRANCH  12  13
ATOM     13  C   UNL     1     -33.061  24.437   8.176  1.00  0.00    -0.000 C 
BRANCH  13  14
ATOM     14  C   UNL     1     -33.939  24.197   6.945  1.00  0.00    -0.000 C 
BRANCH  14  15
ATOM     15  C   UNL     1     -35.385  23.769   7.223  1.00  0.00    -0.000 C 
BRANCH  15  16
ATOM     16  C   UNL     1     -35.747  22.408   6.622  1.00  0.00    -0.000 C 
BRANCH  16  17
ATOM     17  C   UNL     1     -37.053  21.830   7.174  1.00  0.00    -0.003 C 
ATOM     18  C   UNL     1     -37.763  20.895   6.207  1.00  0.00     0.004 C 
ENDBRANCH  16  17
ENDBRANCH  15  16
ENDBRANCH  14  15
ENDBRANCH  13  14
ENDBRANCH  12  13
ENDBRANCH  11  12
ENDBRANCH   1  11
TORSDOF 14
ENDMDL
MODEL 12
REMARK VINA RESULT:    -5.536      1.852      4.991
REMARK INTER + INTRA:         -12.514
REMARK INTER:                 -10.233
REMARK INTRA:                  -2.281
REMARK UNBOUND:                -2.446
REMARK SMILES CCCCCCCCCCCCCCCC(=O)[O-]
REMARK SMILES IDX 9 1 10 2 11 3 12 4 13 5 14 6 15 7 16 8 17 9 18 10 8 11 7 12
REMARK SMILES IDX 6 13 5 14 4 15 3 16 2 17 1 18
REMARK H PARENT
REMARK INDEX MAP 4 1 6 2 8 3 10 4 12 5 14 6 16 7 18 8 2 9 1 10 3 11 5 12 7 13
REMARK INDEX MAP 9 14 11 15 13 16 15 17 17 18
ROOT
ATOM      1  C   UNL     1     -34.577  22.287  10.168  1.00  0.00     0.000 C 
ENDROOT
BRANCH   1   2
ATOM      2  C   UNL     1     -35.120  20.855  10.136  1.00  0.00     0.000 C 
BRANCH   2   3
ATOM      3  C   UNL     1     -34.078  19.749   9.933  1.00  0.00     0.000 C 
BRANCH   3   4
ATOM      4  C   UNL     1     -34.028  19.209   8.501  1.00  0.00     0.000 C 
BRANCH   4   5
ATOM      5  C   UNL     1     -32.591  19.139   7.981  1.00  0.00     0.000 C 
BRANCH   5   6
ATOM      6  C   UNL     1     -32.358  19.946   6.698  1.00  0.00     0.006 C 
BRANCH   6   7
ATOM      7  C   UNL     1     -31.863  21.374   6.928  1.00  0.00     0.053 C 
BRANCH   7   8
ATOM      8  C   UNL     1     -32.193  22.334   5.813  1.00  0.00     0.041 C 
ATOM      9  O   UNL     1     -32.098  23.551   5.909  1.00  0.00    -0.550 OA
ATOM     10  O   UNL     1     -32.640  21.711   4.695  1.00  0.00    -0.550 OA
ENDBRANCH   7   8
ENDBRANCH   6   7
ENDBRANCH   5   6
ENDBRANCH   4   5
ENDBRANCH   3   4
ENDBRANCH   2   3
ENDBRANCH   1   2
BRANCH   1  11
ATOM     11  C   UNL     1     -34.494  22.943   8.788  1.00  0.00     0.000 C 
BRANCH  11  12
ATOM     12  C   UNL     1     -35.820  22.808   8.034  1.00  0.00    -0.000 C 
BRANCH  12  13
ATOM     13  C   UNL     1     -35.588  22.443   6.567  1.00  0.00    -0.000 C 
BRANCH  13  14
ATOM     14  C   UNL     1     -36.304  21.160   6.135  1.00  0.00    -0.000 C 
BRANCH  14  15
ATOM     15  C   UNL     1     -37.253  20.540   7.168  1.00  0.00    -0.000 C 
BRANCH  15  16
ATOM     16  C   UNL     1     -38.704  20.445   6.686  1.00  0.00    -0.000 C 
BRANCH  16  17
ATOM     17  C   UNL     1     -39.705  21.088   7.650  1.00  0.00    -0.003 C 
ATOM     18  C   UNL     1     -39.777  22.602   7.534  1.00  0.00     0.004 C 
ENDBRANCH  16  17
ENDBRANCH  15  16
ENDBRANCH  14  15
ENDBRANCH  13  14
ENDBRANCH  12  13
ENDBRANCH  11  12
ENDBRANCH   1  11
TORSDOF 14
ENDMDL
MODEL 13
REMARK VINA RESULT:    -5.526      1.313      4.677
REMARK INTER + INTRA:         -12.495
REMARK INTER:                 -10.508
REMARK INTRA:                  -1.987
REMARK UNBOUND:                -2.446
REMARK SMILES CCCCCCCCCCCCCCCC(=O)[O-]
REMARK SMILES IDX 9 1 10 2 11 3 12 4 13 5 14 6 15 7 16 8 17 9 18 10 8 11 7 12
REMARK SMILES IDX 6 13 5 14 4 15 3 16 2 17 1 18
REMARK H PARENT
REMARK INDEX MAP 4 1 6 2 8 3 10 4 12 5 14 6 16 7 18 8 2 9 1 10 3 11 5 12 7 13
REMARK INDEX MAP 9 14 11 15 13 16 15 17 17 18
ROOT
ATOM      1  C   UNL     1     -32.945  24.033   7.203  1.00  0.00     0.000 C 
ENDROOT
BRANCH   1   2
ATOM      2  C   UNL     1     -32.050  23.333   6.176  1.00  0.00     0.000 C 
BRANCH   2   3
ATOM      3  C   UNL     1     -31.410  22.017   6.632  1.00  0.00     0.000 C 
BRANCH   3   4
ATOM      4  C   UNL     1     -32.208  21.292   7.719  1.00  0.00     0.000 C 
BRANCH   4   5
ATOM      5  C   UNL     1     -32.404  19.815   7.375  1.00  0.00     0.000 C 
BRANCH   5   6
ATOM      6  C   UNL     1     -33.087  19.581   6.021  1.00  0.00     0.006 C 
BRANCH   6   7
ATOM      7  C   UNL     1     -34.447  20.262   5.872  1.00  0.00     0.053 C 
BRANCH   7   8
ATOM      8  C   UNL     1     -34.614  21.045   4.593  1.00  0.00     0.041 C 
ATOM      9  O   UNL     1     -35.649  21.612   4.269  1.00  0.00    -0.550 OA
ATOM     10  O   UNL     1     -33.503  21.028   3.816  1.00  0.00    -0.550 OA
ENDBRANCH   7   8
ENDBRANCH   6   7
ENDBRANCH   5   6
ENDBRANCH   4   5
ENDBRANCH   3   4
ENDBRANCH   2   3
ENDBRANCH   1   2
BRANCH   1  11
ATOM     11  C   UNL     1     -34.411  24.132   6.774  1.00  0.00     0.000 C 
BRANCH  11  12
ATOM     12  C   UNL     1     -35.343  24.056   7.985  1.00  0.00    -0.000 C 
BRANCH  12  13
ATOM     13  C   UNL     1     -35.127  22.762   8.771  1.00  0.00    -0.000 C 
BRANCH  13  14
ATOM     14  C   UNL     1     -34.401  22.970  10.103  1.00  0.00    -0.000 C 
BRANCH  14  15
ATOM     15  C   UNL     1     -34.374  21.763  11.049  1.00  0.00    -0.000 C 
BRANCH  15  16
ATOM     16  C   UNL     1     -34.825  20.457  10.388  1.00  0.00    -0.000 C 
BRANCH  16  17
ATOM     17  C   UNL     1     -33.992  19.244  10.812  1.00  0.00    -0.003 C 
ATOM     18  C   UNL     1     -34.330  18.729  12.202  1.00  0.00     0.004 C 
ENDBRANCH  16  17
ENDBRANCH  15  16
ENDBRANCH  14  15
ENDBRANCH  13  14
ENDBRANCH  12  13
ENDBRANCH  11  12
ENDBRANCH   1  11
TORSDOF 14
ENDMDL
MODEL 14
REMARK VINA RESULT:    -5.523      2.149      4.612
REMARK INTER + INTRA:         -12.489
REMARK INTER:                 -10.403
REMARK INTRA:                  -2.086
REMARK UNBOUND:                -2.446
REMARK SMILES CCCCCCCCCCCCCCCC(=O)[O-]
REMARK SMILES IDX 9 1 10 2 11 3 12 4 13 5 14 6 15 7 16 8 17 9 18 10 8 11 7 12
REMARK SMILES IDX 6 13 5 14 4 15 3 16 2 17 1 18
REMARK H PARENT
REMARK INDEX MAP 4 1 6 2 8 3 10 4 12 5 14 6 16 7 18 8 2 9 1 10 3 11 5 12 7 13
REMARK INDEX MAP 9 14 11 15 13 16 15 17 17 18
ROOT
ATOM      1  C   UNL     1     -32.281  23.337   9.118  1.00  0.00     0.000 C 
ENDROOT
BRANCH   1   2
ATOM      2  C   UNL     1     -33.355  23.118  10.188  1.00  0.00     0.000 C 
BRANCH   2   3
ATOM      3  C   UNL     1     -34.560  22.271   9.765  1.00  0.00     0.000 C 
BRANCH   3   4
ATOM      4  C   UNL     1     -34.524  20.840  10.308  1.00  0.00     0.000 C 
BRANCH   4   5
ATOM      5  C   UNL     1     -34.568  19.813   9.175  1.00  0.00     0.000 C 
BRANCH   5   6
ATOM      6  C   UNL     1     -33.206  19.562   8.516  1.00  0.00     0.006 C 
BRANCH   6   7
ATOM      7  C   UNL     1     -33.233  18.549   7.371  1.00  0.00     0.053 C 
BRANCH   7   8
ATOM      8  C   UNL     1     -31.884  18.268   6.757  1.00  0.00     0.041 C 
ATOM      9  O   UNL     1     -31.705  18.084   5.560  1.00  0.00    -0.550 OA
ATOM     10  O   UNL     1     -30.890  18.206   7.675  1.00  0.00    -0.550 OA
ENDBRANCH   7   8
ENDBRANCH   6   7
ENDBRANCH   5   6
ENDBRANCH   4   5
ENDBRANCH   3   4
ENDBRANCH   2   3
ENDBRANCH   1   2
BRANCH   1  11
ATOM     11  C   UNL     1     -32.423  24.664   8.368  1.00  0.00     0.000 C 
BRANCH  11  12
ATOM     12  C   UNL     1     -33.030  24.448   6.980  1.00  0.00    -0.000 C 
BRANCH  12  13
ATOM     13  C   UNL     1     -32.486  23.175   6.329  1.00  0.00    -0.000 C 
BRANCH  13  14
ATOM     14  C   UNL     1     -33.545  22.085   6.140  1.00  0.00    -0.000 C 
BRANCH  14  15
ATOM     15  C   UNL     1     -35.006  22.544   6.229  1.00  0.00    -0.000 C 
BRANCH  15  16
ATOM     16  C   UNL     1     -36.016  21.403   6.069  1.00  0.00    -0.000 C 
BRANCH  16  17
ATOM     17  C   UNL     1     -37.109  21.408   7.142  1.00  0.00    -0.003 C 
ATOM     18  C   UNL     1     -38.335  20.591   6.766  1.00  0.00     0.004 C 
ENDBRANCH  16  17
ENDBRANCH  15  16
ENDBRANCH  14  15
ENDBRANCH  13  14
ENDBRANCH  12  13
ENDBRANCH  11  12
ENDBRANCH   1  11
TORSDOF 14
ENDMDL
MODEL 15
REMARK VINA RESULT:    -5.510      2.148      4.802
REMARK INTER + INTRA:         -12.466
REMARK INTER:                 -10.537
REMARK INTRA:                  -1.929
REMARK UNBOUND:                -2.446
REMARK SMILES CCCCCCCCCCCCCCCC(=O)[O-]
REMARK SMILES IDX 9 1 10 2 11 3 12 4 13 5 14 6 15 7 16 8 17 9 18 10 8 11 7 12
REMARK SMILES IDX 6 13 5 14 4 15 3 16 2 17 1 18
REMARK H PARENT
REMARK INDEX MAP 4 1 6 2 8 3 10 4 12 5 14 6 16 7 18 8 2 9 1 10 3 11 5 12 7 13
REMARK INDEX MAP 9 14 11 15 13 16 15 17 17 18
ROOT
ATOM      1  C   UNL     1     -34.479  24.156   6.618  1.00  0.00     0.000 C 
ENDROOT
BRANCH   1   2
ATOM      2  C   UNL     1     -35.494  23.213   7.272  1.00  0.00     0.000 C 
BRANCH   2   3
ATOM      3  C   UNL     1     -35.991  22.055   6.401  1.00  0.00     0.000 C 
BRANCH   3   4
ATOM      4  C   UNL     1     -35.050  20.847   6.392  1.00  0.00     0.000 C 
BRANCH   4   5
ATOM      5  C   UNL     1     -34.363  20.685   5.035  1.00  0.00     0.000 C 
BRANCH   5   6
ATOM      6  C   UNL     1     -32.846  20.476   5.132  1.00  0.00     0.006 C 
BRANCH   6   7
ATOM      7  C   UNL     1     -32.349  20.075   6.520  1.00  0.00     0.053 C 
BRANCH   7   8
ATOM      8  C   UNL     1     -31.783  18.679   6.600  1.00  0.00     0.041 C 
ATOM      9  O   UNL     1     -31.642  17.943   5.632  1.00  0.00    -0.550 OA
ATOM     10  O   UNL     1     -31.476  18.307   7.867  1.00  0.00    -0.550 OA
ENDBRANCH   7   8
ENDBRANCH   6   7
ENDBRANCH   5   6
ENDBRANCH   4   5
ENDBRANCH   3   4
ENDBRANCH   2   3
ENDBRANCH   1   2
BRANCH   1  11
ATOM     11  C   UNL     1     -33.024  23.726   6.818  1.00  0.00     0.000 C 
BRANCH  11  12
ATOM     12  C   UNL     1     -32.253  24.764   7.638  1.00  0.00    -0.000 C 
BRANCH  12  13
ATOM     13  C   UNL     1     -32.054  24.294   9.080  1.00  0.00    -0.000 C 
BRANCH  13  14
ATOM     14  C   UNL     1     -32.809  23.003   9.412  1.00  0.00    -0.000 C 
BRANCH  14  15
ATOM     15  C   UNL     1     -33.681  23.041  10.673  1.00  0.00    -0.000 C 
BRANCH  15  16
ATOM     16  C   UNL     1     -34.145  21.656  11.137  1.00  0.00    -0.000 C 
BRANCH  16  17
ATOM     17  C   UNL     1     -34.791  20.829  10.021  1.00  0.00    -0.003 C 
ATOM     18  C   UNL     1     -34.091  19.505   9.762  1.00  0.00     0.004 C 
ENDBRANCH  16  17
ENDBRANCH  15  16
ENDBRANCH  14  15
ENDBRANCH  13  14
ENDBRANCH  12  13
ENDBRANCH  11  12
ENDBRANCH   1  11
TORSDOF 14
ENDMDL
MODEL 16
REMARK VINA RESULT:    -5.483      2.027      3.874
REMARK INTER + INTRA:         -12.417
REMARK INTER:                 -10.008
REMARK INTRA:                  -2.409
REMARK UNBOUND:                -2.446
REMARK SMILES CCCCCCCCCCCCCCCC(=O)[O-]
REMARK SMILES IDX 9 1 10 2 11 3 12 4 13 5 14 6 15 7 16 8 17 9 18 10 8 11 7 12
REMARK SMILES IDX 6 13 5 14 4 15 3 16 2 17 1 18
REMARK H PARENT
REMARK INDEX MAP 4 1 6 2 8 3 10 4 12 5 14 6 16 7 18 8 2 9 1 10 3 11 5 12 7 13
REMARK INDEX MAP 9 14 11 15 13 16 15 17 17 18
ROOT
ATOM      1  C   UNL     1     -32.958  23.975   7.917  1.00  0.00     0.000 C 
ENDROOT
BRANCH   1   2
ATOM      2  C   UNL     1     -34.170  24.020   6.981  1.00  0.00     0.000 C 
BRANCH   2   3
ATOM      3  C   UNL     1     -35.537  24.163   7.661  1.00  0.00     0.000 C 
BRANCH   3   4
ATOM      4  C   UNL     1     -36.379  22.885   7.617  1.00  0.00     0.000 C 
BRANCH   4   5
ATOM      5  C   UNL     1     -36.030  22.029   6.399  1.00  0.00     0.000 C 
BRANCH   5   6
ATOM      6  C   UNL     1     -36.910  20.783   6.247  1.00  0.00     0.006 C 
BRANCH   6   7
ATOM      7  C   UNL     1     -37.990  20.635   7.319  1.00  0.00     0.053 C 
BRANCH   7   8
ATOM      8  C   UNL     1     -39.395  20.535   6.778  1.00  0.00     0.041 C 
ATOM      9  O   UNL     1     -40.368  20.235   7.457  1.00  0.00    -0.550 OA
ATOM     10  O   UNL     1     -39.466  20.781   5.447  1.00  0.00    -0.550 OA
ENDBRANCH   7   8
ENDBRANCH   6   7
ENDBRANCH   5   6
ENDBRANCH   4   5
ENDBRANCH   3   4
ENDBRANCH   2   3
ENDBRANCH   1   2
BRANCH   1  11
ATOM     11  C   UNL     1     -32.239  22.624   7.924  1.00  0.00     0.000 C 
BRANCH  11  12
ATOM     12  C   UNL     1     -31.884  22.182   6.502  1.00  0.00    -0.000 C 
BRANCH  12  13
ATOM     13  C   UNL     1     -32.648  20.917   6.109  1.00  0.00    -0.000 C 
BRANCH  13  14
ATOM     14  C   UNL     1     -32.496  19.773   7.115  1.00  0.00    -0.000 C 
BRANCH  14  15
ATOM     15  C   UNL     1     -33.796  19.238   7.727  1.00  0.00    -0.000 C 
BRANCH  15  16
ATOM     16  C   UNL     1     -33.916  19.499   9.232  1.00  0.00    -0.000 C 
BRANCH  16  17
ATOM     17  C   UNL     1     -34.921  20.602   9.577  1.00  0.00    -0.003 C 
ATOM     18  C   UNL     1     -34.468  21.505  10.713  1.00  0.00     0.004 C 
ENDBRANCH  16  17
ENDBRANCH  15  16
ENDBRANCH  14  15
ENDBRANCH  13  14
ENDBRANCH  12  13
ENDBRANCH  11  12
ENDBRANCH   1  11
TORSDOF 14
ENDMDL
MODEL 17
REMARK VINA RESULT:    -5.456      2.512      5.481
REMARK INTER + INTRA:         -12.367
REMARK INTER:                 -10.410
REMARK INTRA:                  -1.957
REMARK UNBOUND:                -2.446
REMARK SMILES CCCCCCCCCCCCCCCC(=O)[O-]
REMARK SMILES IDX 9 1 10 2 11 3 12 4 13 5 14 6 15 7 16 8 17 9 18 10 8 11 7 12
REMARK SMILES IDX 6 13 5 14 4 15 3 16 2 17 1 18
REMARK H PARENT
REMARK INDEX MAP 4 1 6 2 8 3 10 4 12 5 14 6 16 7 18 8 2 9 1 10 3 11 5 12 7 13
REMARK INDEX MAP 9 14 11 15 13 16 15 17 17 18
ROOT
ATOM      1  C   UNL     1     -34.970  24.074   7.899  1.00  0.00     0.000 C 
ENDROOT
BRANCH   1   2
ATOM      2  C   UNL     1     -33.964  24.496   6.823  1.00  0.00     0.000 C 
BRANCH   2   3
ATOM      3  C   UNL     1     -32.486  24.276   7.165  1.00  0.00     0.000 C 
BRANCH   3   4
ATOM      4  C   UNL     1     -32.082  22.800   7.213  1.00  0.00     0.000 C 
BRANCH   4   5
ATOM      5  C   UNL     1     -32.128  22.165   5.822  1.00  0.00     0.000 C 
BRANCH   5   6
ATOM      6  C   UNL     1     -32.795  20.785   5.795  1.00  0.00     0.006 C 
BRANCH   6   7
ATOM      7  C   UNL     1     -32.468  19.898   6.996  1.00  0.00     0.053 C 
BRANCH   7   8
ATOM      8  C   UNL     1     -31.861  18.564   6.640  1.00  0.00     0.041 C 
ATOM      9  O   UNL     1     -31.911  18.068   5.522  1.00  0.00    -0.550 OA
ATOM     10  O   UNL     1     -31.280  17.950   7.699  1.00  0.00    -0.550 OA
ENDBRANCH   7   8
ENDBRANCH   6   7
ENDBRANCH   5   6
ENDBRANCH   4   5
ENDBRANCH   3   4
ENDBRANCH   2   3
ENDBRANCH   1   2
BRANCH   1  11
ATOM     11  C   UNL     1     -35.934  22.977   7.440  1.00  0.00     0.000 C 
BRANCH  11  12
ATOM     12  C   UNL     1     -35.625  21.649   8.134  1.00  0.00    -0.000 C 
BRANCH  12  13
ATOM     13  C   UNL     1     -36.181  20.466   7.339  1.00  0.00    -0.000 C 
BRANCH  13  14
ATOM     14  C   UNL     1     -36.683  20.850   5.944  1.00  0.00    -0.000 C 
BRANCH  14  15
ATOM     15  C   UNL     1     -38.167  20.581   5.665  1.00  0.00    -0.000 C 
BRANCH  15  16
ATOM     16  C   UNL     1     -38.887  19.877   6.819  1.00  0.00    -0.000 C 
BRANCH  16  17
ATOM     17  C   UNL     1     -39.559  20.847   7.795  1.00  0.00    -0.003 C 
ATOM     18  C   UNL     1     -39.681  22.264   7.259  1.00  0.00     0.004 C 
ENDBRANCH  16  17
ENDBRANCH  15  16
ENDBRANCH  14  15
ENDBRANCH  13  14
ENDBRANCH  12  13
ENDBRANCH  11  12
ENDBRANCH   1  11
TORSDOF 14
ENDMDL
MODEL 18
REMARK VINA RESULT:    -5.445      2.198      3.727
REMARK INTER + INTRA:         -12.349
REMARK INTER:                 -10.008
REMARK INTRA:                  -2.340
REMARK UNBOUND:                -2.446
REMARK SMILES CCCCCCCCCCCCCCCC(=O)[O-]
REMARK SMILES IDX 9 1 10 2 11 3 12 4 13 5 14 6 15 7 16 8 17 9 18 10 8 11 7 12
REMARK SMILES IDX 6 13 5 14 4 15 3 16 2 17 1 18
REMARK H PARENT
REMARK INDEX MAP 4 1 6 2 8 3 10 4 12 5 14 6 16 7 18 8 2 9 1 10 3 11 5 12 7 13
REMARK INDEX MAP 9 14 11 15 13 16 15 17 17 18
ROOT
ATOM      1  C   UNL     1     -34.206  23.044  10.220  1.00  0.00     0.000 C 
ENDROOT
BRANCH   1   2
ATOM      2  C   UNL     1     -33.199  23.059   9.066  1.00  0.00     0.000 C 
BRANCH   2   3
ATOM      3  C   UNL     1     -33.761  23.443   7.692  1.00  0.00     0.000 C 
BRANCH   3   4
ATOM      4  C   UNL     1     -35.288  23.558   7.666  1.00  0.00     0.000 C 
BRANCH   4   5
ATOM      5  C   UNL     1     -35.920  22.405   6.885  1.00  0.00     0.000 C 
BRANCH   5   6
ATOM      6  C   UNL     1     -37.374  22.117   7.278  1.00  0.00     0.006 C 
BRANCH   6   7
ATOM      7  C   UNL     1     -37.782  20.648   7.166  1.00  0.00     0.053 C 
BRANCH   7   8
ATOM      8  C   UNL     1     -39.270  20.420   7.072  1.00  0.00     0.041 C 
ATOM      9  O   UNL     1     -40.024  20.421   8.036  1.00  0.00    -0.550 OA
ATOM     10  O   UNL     1     -39.687  20.179   5.805  1.00  0.00    -0.550 OA
ENDBRANCH   7   8
ENDBRANCH   6   7
ENDBRANCH   5   6
ENDBRANCH   4   5
ENDBRANCH   3   4
ENDBRANCH   2   3
ENDBRANCH   1   2
BRANCH   1  11
ATOM     11  C   UNL     1     -34.303  21.693  10.932  1.00  0.00     0.000 C 
BRANCH  11  12
ATOM     12  C   UNL     1     -35.038  20.667  10.066  1.00  0.00    -0.000 C 
BRANCH  12  13
ATOM     13  C   UNL     1     -34.168  19.436   9.806  1.00  0.00    -0.000 C 
BRANCH  13  14
ATOM     14  C   UNL     1     -33.858  19.209   8.323  1.00  0.00    -0.000 C 
BRANCH  14  15
ATOM     15  C   UNL     1     -32.403  19.437   7.898  1.00  0.00    -0.000 C 
BRANCH  15  16
ATOM     16  C   UNL     1     -32.264  20.229   6.595  1.00  0.00    -0.000 C 
BRANCH  16  17
ATOM     17  C   UNL     1     -33.422  19.998   5.620  1.00  0.00    -0.003 C 
ATOM     18  C   UNL     1     -33.169  20.559   4.229  1.00  0.00     0.004 C 
ENDBRANCH  16  17
ENDBRANCH  15  16
ENDBRANCH  14  15
ENDBRANCH  13  14
ENDBRANCH  12  13
ENDBRANCH  11  12
ENDBRANCH   1  11
TORSDOF 14
ENDMDL
MODEL 19
REMARK VINA RESULT:    -5.423      2.582      5.300
REMARK INTER + INTRA:         -12.308
REMARK INTER:                 -10.417
REMARK INTRA:                  -1.892
REMARK UNBOUND:                -2.446
REMARK SMILES CCCCCCCCCCCCCCCC(=O)[O-]
REMARK SMILES IDX 9 1 10 2 11 3 12 4 13 5 14 6 15 7 16 8 17 9 18 10 8 11 7 12
REMARK SMILES IDX 6 13 5 14 4 15 3 16 2 17 1 18
REMARK H PARENT
REMARK INDEX MAP 4 1 6 2 8 3 10 4 12 5 14 6 16 7 18 8 2 9 1 10 3 11 5 12 7 13
REMARK INDEX MAP 9 14 11 15 13 16 15 17 17 18
ROOT
ATOM      1  C   UNL     1     -32.521  23.402   8.235  1.00  0.00     0.000 C 
ENDROOT
BRANCH   1   2
ATOM      2  C   UNL     1     -31.859  22.306   7.393  1.00  0.00     0.000 C 
BRANCH   2   3
ATOM      3  C   UNL     1     -32.146  22.353   5.888  1.00  0.00     0.000 C 
BRANCH   3   4
ATOM      4  C   UNL     1     -33.208  21.348   5.435  1.00  0.00     0.000 C 
BRANCH   4   5
ATOM      5  C   UNL     1     -32.635  20.347   4.430  1.00  0.00     0.000 C 
BRANCH   5   6
ATOM      6  C   UNL     1     -32.622  18.900   4.940  1.00  0.00     0.006 C 
BRANCH   6   7
ATOM      7  C   UNL     1     -33.037  18.739   6.402  1.00  0.00     0.053 C 
BRANCH   7   8
ATOM      8  C   UNL     1     -31.908  18.371   7.333  1.00  0.00     0.041 C 
ATOM      9  O   UNL     1     -31.907  18.613   8.533  1.00  0.00    -0.550 OA
ATOM     10  O   UNL     1     -30.874  17.771   6.695  1.00  0.00    -0.550 OA
ENDBRANCH   7   8
ENDBRANCH   6   7
ENDBRANCH   5   6
ENDBRANCH   4   5
ENDBRANCH   3   4
ENDBRANCH   2   3
ENDBRANCH   1   2
BRANCH   1  11
ATOM     11  C   UNL     1     -33.191  22.878   9.507  1.00  0.00     0.000 C 
BRANCH  11  12
ATOM     12  C   UNL     1     -34.613  22.390   9.219  1.00  0.00    -0.000 C 
BRANCH  12  13
ATOM     13  C   UNL     1     -35.326  23.314   8.231  1.00  0.00    -0.000 C 
BRANCH  13  14
ATOM     14  C   UNL     1     -36.132  22.565   7.165  1.00  0.00    -0.000 C 
BRANCH  14  15
ATOM     15  C   UNL     1     -36.297  21.057   7.384  1.00  0.00    -0.000 C 
BRANCH  15  16
ATOM     16  C   UNL     1     -37.602  20.495   6.812  1.00  0.00    -0.000 C 
BRANCH  16  17
ATOM     17  C   UNL     1     -37.801  20.819   5.329  1.00  0.00    -0.003 C 
ATOM     18  C   UNL     1     -36.637  20.390   4.450  1.00  0.00     0.004 C 
ENDBRANCH  16  17
ENDBRANCH  15  16
ENDBRANCH  14  15
ENDBRANCH  13  14
ENDBRANCH  12  13
ENDBRANCH  11  12
ENDBRANCH   1  11
TORSDOF 14
ENDMDL
MODEL 20
REMARK VINA RESULT:    -5.405      2.195      3.945
REMARK INTER + INTRA:         -12.275
REMARK INTER:                 -10.002
REMARK INTRA:                  -2.274
REMARK UNBOUND:                -2.446
REMARK SMILES CCCCCCCCCCCCCCCC(=O)[O-]
REMARK SMILES IDX 9 1 10 2 11 3 12 4 13 5 14 6 15 7 16 8 17 9 18 10 8 11 7 12
REMARK SMILES IDX 6 13 5 14 4 15 3 16 2 17 1 18
REMARK H PARENT
REMARK INDEX MAP 4 1 6 2 8 3 10 4 12 5 14 6 16 7 18 8 2 9 1 10 3 11 5 12 7 13
REMARK INDEX MAP 9 14 11 15 13 16 15 17 17 18
ROOT
ATOM      1  C   UNL     1     -32.430  23.203   9.073  1.00  0.00     0.000 C 
ENDROOT
BRANCH   1   2
ATOM      2  C   UNL     1     -33.724  23.057   9.879  1.00  0.00     0.000 C 
BRANCH   2   3
ATOM      3  C   UNL     1     -34.895  22.387   9.150  1.00  0.00     0.000 C 
BRANCH   3   4
ATOM      4  C   UNL     1     -35.728  23.358   8.308  1.00  0.00     0.000 C 
BRANCH   4   5
ATOM      5  C   UNL     1     -36.586  22.613   7.284  1.00  0.00     0.000 C 
BRANCH   5   6
ATOM      6  C   UNL     1     -36.758  21.121   7.593  1.00  0.00     0.006 C 
BRANCH   6   7
ATOM      7  C   UNL     1     -37.937  20.458   6.880  1.00  0.00     0.053 C 
BRANCH   7   8
ATOM      8  C   UNL     1     -39.280  21.064   7.201  1.00  0.00     0.041 C 
ATOM      9  O   UNL     1     -39.780  21.988   6.574  1.00  0.00    -0.550 OA
ATOM     10  O   UNL     1     -39.867  20.498   8.284  1.00  0.00    -0.550 OA
ENDBRANCH   7   8
ENDBRANCH   6   7
ENDBRANCH   5   6
ENDBRANCH   4   5
ENDBRANCH   3   4
ENDBRANCH   2   3
ENDBRANCH   1   2
BRANCH   1  11
ATOM     11  C   UNL     1     -32.371  24.482   8.233  1.00  0.00     0.000 C 
BRANCH  11  12
ATOM     12  C   UNL     1     -32.302  24.155   6.739  1.00  0.00    -0.000 C 
BRANCH  12  13
ATOM     13  C   UNL     1     -32.118  22.654   6.508  1.00  0.00    -0.000 C 
BRANCH  13  14
ATOM     14  C   UNL     1     -33.331  21.983   5.858  1.00  0.00    -0.000 C 
BRANCH  14  15
ATOM     15  C   UNL     1     -33.329  20.449   5.854  1.00  0.00    -0.000 C 
BRANCH  15  16
ATOM     16  C   UNL     1     -32.239  19.838   6.738  1.00  0.00    -0.000 C 
BRANCH  16  17
ATOM     17  C   UNL     1     -32.712  19.539   8.164  1.00  0.00    -0.003 C 
ATOM     18  C   UNL     1     -34.078  18.875   8.226  1.00  0.00     0.004 C 
ENDBRANCH  16  17
ENDBRANCH  15  16
ENDBRANCH  14  15
ENDBRANCH  13  14
ENDBRANCH  12  13
ENDBRANCH  11  12
ENDBRANCH   1  11
TORSDOF 14
ENDMDL
