MODEL 1
REMARK VINA RESULT:    -6.057      0.000      0.000
REMARK INTER + INTRA:         -12.918
REMARK INTER:                 -11.014
REMARK INTRA:                  -1.904
REMARK UNBOUND:                -1.904
REMARK SMILES CCCCCCCCCCCCCCCC(=O)[O-]
REMARK SMILES IDX 9 1 10 2 11 3 12 4 13 5 14 6 15 7 16 8 17 9 18 10 8 11 7 12
REMARK SMILES IDX 6 13 5 14 4 15 3 16 2 17 1 18
REMARK H PARENT
REMARK INDEX MAP 4 1 6 2 8 3 10 4 12 5 14 6 16 7 18 8 2 9 1 10 3 11 5 12 7 13
REMARK INDEX MAP 9 14 11 15 13 16 15 17 17 18
ROOT
ATOM      1  C   UNL     1     -35.803  20.546   7.099  1.00  0.00     0.000 C 
ENDROOT
BRANCH   1   2
ATOM      2  C   UNL     1     -34.744  20.294   8.177  1.00  0.00     0.000 C 
BRANCH   2   3
ATOM      3  C   UNL     1     -34.010  18.950   8.092  1.00  0.00     0.000 C 
BRANCH   3   4
ATOM      4  C   UNL     1     -32.493  19.069   8.267  1.00  0.00     0.000 C 
BRANCH   4   5
ATOM      5  C   UNL     1     -31.753  18.696   6.981  1.00  0.00     0.000 C 
BRANCH   5   6
ATOM      6  C   UNL     1     -32.681  18.433   5.789  1.00  0.00     0.006 C 
BRANCH   6   7
ATOM      7  C   UNL     1     -32.375  19.274   4.550  1.00  0.00     0.053 C 
BRANCH   7   8
ATOM      8  C   UNL     1     -32.870  20.697   4.624  1.00  0.00     0.041 C 
ATOM      9  O   UNL     1     -32.468  21.518   5.438  1.00  0.00    -0.550 OA
ATOM     10  O   UNL     1     -33.837  20.966   3.714  1.00  0.00    -0.550 OA
ENDBRANCH   7   8
ENDBRANCH   6   7
ENDBRANCH   5   6
ENDBRANCH   4   5
ENDBRANCH   3   4
ENDBRANCH   2   3
ENDBRANCH   1   2
BRANCH   1  11
ATOM     11  C   UNL     1     -35.812  21.983   6.572  1.00  0.00     0.000 C 
BRANCH  11  12
ATOM     12  C   UNL     1     -36.312  22.958   7.641  1.00  0.00    -0.000 C 
BRANCH  12  13
ATOM     13  C   UNL     1     -35.513  24.262   7.619  1.00  0.00    -0.000 C 
BRANCH  13  14
ATOM     14  C   UNL     1     -34.121  24.116   6.998  1.00  0.00    -0.000 C 
BRANCH  14  15
ATOM     15  C   UNL     1     -33.054  25.095   7.502  1.00  0.00    -0.000 C 
BRANCH  15  16
ATOM     16  C   UNL     1     -32.177  24.521   8.618  1.00  0.00    -0.000 C 
BRANCH  16  17
ATOM     17  C   UNL     1     -32.515  23.069   8.969  1.00  0.00    -0.003 C 
ATOM     18  C   UNL     1     -33.325  22.924  10.247  1.00  0.00     0.004 C 
ENDBRANCH  16  17
ENDBRANCH  15  16
ENDBRANCH  14  15
ENDBRANCH  13  14
ENDBRANCH  12  13
ENDBRANCH  11  12
ENDBRANCH   1  11
TORSDOF 14
ENDMDL
MODEL 2
REMARK VINA RESULT:    -6.055      1.641      4.255
REMARK INTER + INTRA:         -12.914
REMARK INTER:                 -11.289
REMARK INTRA:                  -1.625
REMARK UNBOUND:                -1.904
REMARK SMILES CCCCCCCCCCCCCCCC(=O)[O-]
REMARK SMILES IDX 9 1 10 2 11 3 12 4 13 5 14 6 15 7 16 8 17 9 18 10 8 11 7 12
REMARK SMILES IDX 6 13 5 14 4 15 3 16 2 17 1 18
REMARK H PARENT
REMARK INDEX MAP 4 1 6 2 8 3 10 4 12 5 14 6 16 7 18 8 2 9 1 10 3 11 5 12 7 13
REMARK INDEX MAP 9 14 11 15 13 16 15 17 17 18
ROOT
ATOM      1  C   UNL     1     -33.365  25.214   7.078  1.00  0.00     0.000 C 
ENDROOT
BRANCH   1   2
ATOM      2  C   UNL     1     -34.393  24.172   6.626  1.00  0.00     0.000 C 
BRANCH   2   3
ATOM      3  C   UNL     1     -35.602  23.980   7.550  1.00  0.00     0.000 C 
BRANCH   3   4
ATOM      4  C   UNL     1     -36.369  22.680   7.291  1.00  0.00     0.000 C 
BRANCH   4   5
ATOM      5  C   UNL     1     -35.661  21.813   6.249  1.00  0.00     0.000 C 
BRANCH   5   6
ATOM      6  C   UNL     1     -34.958  20.585   6.841  1.00  0.00     0.006 C 
BRANCH   6   7
ATOM      7  C   UNL     1     -33.873  19.984   5.949  1.00  0.00     0.053 C 
BRANCH   7   8
ATOM      8  C   UNL     1     -33.218  20.971   5.014  1.00  0.00     0.041 C 
ATOM      9  O   UNL     1     -33.518  21.096   3.834  1.00  0.00    -0.550 OA
ATOM     10  O   UNL     1     -32.233  21.686   5.609  1.00  0.00    -0.550 OA
ENDBRANCH   7   8
ENDBRANCH   6   7
ENDBRANCH   5   6
ENDBRANCH   4   5
ENDBRANCH   3   4
ENDBRANCH   2   3
ENDBRANCH   1   2
BRANCH   1  11
ATOM     11  C   UNL     1     -32.046  24.606   7.560  1.00  0.00     0.000 C 
BRANCH  11  12
ATOM     12  C   UNL     1     -32.092  24.316   9.063  1.00  0.00    -0.000 C 
BRANCH  12  13
ATOM     13  C   UNL     1     -32.531  22.876   9.335  1.00  0.00    -0.000 C 
BRANCH  13  14
ATOM     14  C   UNL     1     -33.653  22.765  10.373  1.00  0.00    -0.000 C 
BRANCH  14  15
ATOM     15  C   UNL     1     -34.592  21.563  10.221  1.00  0.00    -0.000 C 
BRANCH  15  16
ATOM     16  C   UNL     1     -34.663  20.680  11.471  1.00  0.00    -0.000 C 
BRANCH  16  17
ATOM     17  C   UNL     1     -34.257  19.227  11.209  1.00  0.00    -0.003 C 
ATOM     18  C   UNL     1     -34.185  18.378  12.468  1.00  0.00     0.004 C 
ENDBRANCH  16  17
ENDBRANCH  15  16
ENDBRANCH  14  15
ENDBRANCH  13  14
ENDBRANCH  12  13
ENDBRANCH  11  12
ENDBRANCH   1  11
TORSDOF 14
ENDMDL
MODEL 3
REMARK VINA RESULT:    -6.051      2.736      4.652
REMARK INTER + INTRA:         -12.906
REMARK INTER:                 -10.528
REMARK INTRA:                  -2.378
REMARK UNBOUND:                -1.904
REMARK SMILES CCCCCCCCCCCCCCCC(=O)[O-]
REMARK SMILES IDX 9 1 10 2 11 3 12 4 13 5 14 6 15 7 16 8 17 9 18 10 8 11 7 12
REMARK SMILES IDX 6 13 5 14 4 15 3 16 2 17 1 18
REMARK H PARENT
REMARK INDEX MAP 4 1 6 2 8 3 10 4 12 5 14 6 16 7 18 8 2 9 1 10 3 11 5 12 7 13
REMARK INDEX MAP 9 14 11 15 13 16 15 17 17 18
ROOT
ATOM      1  C   UNL     1     -32.694  19.383   7.769  1.00  0.00     0.000 C 
ENDROOT
BRANCH   1   2
ATOM      2  C   UNL     1     -32.774  20.517   6.742  1.00  0.00     0.000 C 
BRANCH   2   3
ATOM      3  C   UNL     1     -34.042  20.553   5.881  1.00  0.00     0.000 C 
BRANCH   3   4
ATOM      4  C   UNL     1     -34.689  21.938   5.802  1.00  0.00     0.000 C 
BRANCH   4   5
ATOM      5  C   UNL     1     -36.043  21.962   6.512  1.00  0.00     0.000 C 
BRANCH   5   6
ATOM      6  C   UNL     1     -36.886  20.703   6.276  1.00  0.00     0.006 C 
BRANCH   6   7
ATOM      7  C   UNL     1     -38.009  20.492   7.291  1.00  0.00     0.053 C 
BRANCH   7   8
ATOM      8  C   UNL     1     -39.396  20.503   6.697  1.00  0.00     0.041 C 
ATOM      9  O   UNL     1     -39.628  20.671   5.507  1.00  0.00    -0.550 OA
ATOM     10  O   UNL     1     -40.369  20.341   7.627  1.00  0.00    -0.550 OA
ENDBRANCH   7   8
ENDBRANCH   6   7
ENDBRANCH   5   6
ENDBRANCH   4   5
ENDBRANCH   3   4
ENDBRANCH   2   3
ENDBRANCH   1   2
BRANCH   1  11
ATOM     11  C   UNL     1     -34.050  19.000   8.367  1.00  0.00     0.000 C 
BRANCH  11  12
ATOM     12  C   UNL     1     -34.193  19.535   9.794  1.00  0.00    -0.000 C 
BRANCH  12  13
ATOM     13  C   UNL     1     -34.986  20.843   9.818  1.00  0.00    -0.000 C 
BRANCH  13  14
ATOM     14  C   UNL     1     -34.160  22.051  10.268  1.00  0.00    -0.000 C 
BRANCH  14  15
ATOM     15  C   UNL     1     -33.882  23.112   9.196  1.00  0.00    -0.000 C 
BRANCH  15  16
ATOM     16  C   UNL     1     -32.395  23.441   9.032  1.00  0.00    -0.000 C 
BRANCH  16  17
ATOM     17  C   UNL     1     -32.145  24.815   8.404  1.00  0.00    -0.003 C 
ATOM     18  C   UNL     1     -32.737  24.966   7.011  1.00  0.00     0.004 C 
ENDBRANCH  16  17
ENDBRANCH  15  16
ENDBRANCH  14  15
ENDBRANCH  13  14
ENDBRANCH  12  13
ENDBRANCH  11  12
ENDBRANCH   1  11
TORSDOF 14
ENDMDL
MODEL 4
REMARK VINA RESULT:    -6.040      1.788      3.257
REMARK INTER + INTRA:         -12.887
REMARK INTER:                 -10.862
REMARK INTRA:                  -2.024
REMARK UNBOUND:                -1.904
REMARK SMILES CCCCCCCCCCCCCCCC(=O)[O-]
REMARK SMILES IDX 9 1 10 2 11 3 12 4 13 5 14 6 15 7 16 8 17 9 18 10 8 11 7 12
REMARK SMILES IDX 6 13 5 14 4 15 3 16 2 17 1 18
REMARK H PARENT
REMARK INDEX MAP 4 1 6 2 8 3 10 4 12 5 14 6 16 7 18 8 2 9 1 10 3 11 5 12 7 13
REMARK INDEX MAP 9 14 11 15 13 16 15 17 17 18
ROOT
ATOM      1  C   UNL     1     -36.301  21.696   6.476  1.00  0.00     0.000 C 
ENDROOT
BRANCH   1   2
ATOM      2  C   UNL     1     -36.044  20.566   5.475  1.00  0.00     0.000 C 
BRANCH   2   3
ATOM      3  C   UNL     1     -35.131  20.912   4.293  1.00  0.00     0.000 C 
BRANCH   3   4
ATOM      4  C   UNL     1     -33.667  20.523   4.516  1.00  0.00     0.000 C 
BRANCH   4   5
ATOM      5  C   UNL     1     -32.923  21.592   5.318  1.00  0.00     0.000 C 
BRANCH   5   6
ATOM      6  C   UNL     1     -32.017  21.021   6.416  1.00  0.00     0.006 C 
BRANCH   6   7
ATOM      7  C   UNL     1     -32.632  19.867   7.208  1.00  0.00     0.053 C 
BRANCH   7   8
ATOM      8  C   UNL     1     -31.901  18.555   7.066  1.00  0.00     0.041 C 
ATOM      9  O   UNL     1     -31.744  17.972   6.001  1.00  0.00    -0.550 OA
ATOM     10  O   UNL     1     -31.460  18.066   8.251  1.00  0.00    -0.550 OA
ENDBRANCH   7   8
ENDBRANCH   6   7
ENDBRANCH   5   6
ENDBRANCH   4   5
ENDBRANCH   3   4
ENDBRANCH   2   3
ENDBRANCH   1   2
BRANCH   1  11
ATOM     11  C   UNL     1     -35.983  21.318   7.924  1.00  0.00     0.000 C 
BRANCH  11  12
ATOM     12  C   UNL     1     -35.379  22.503   8.682  1.00  0.00    -0.000 C 
BRANCH  12  13
ATOM     13  C   UNL     1     -34.466  22.029   9.814  1.00  0.00    -0.000 C 
BRANCH  13  14
ATOM     14  C   UNL     1     -33.310  22.989  10.110  1.00  0.00    -0.000 C 
BRANCH  14  15
ATOM     15  C   UNL     1     -32.345  23.256   8.948  1.00  0.00    -0.000 C 
BRANCH  15  16
ATOM     16  C   UNL     1     -32.007  24.739   8.763  1.00  0.00    -0.000 C 
BRANCH  16  17
ATOM     17  C   UNL     1     -32.340  25.266   7.364  1.00  0.00    -0.003 C 
ATOM     18  C   UNL     1     -33.609  24.671   6.775  1.00  0.00     0.004 C 
ENDBRANCH  16  17
ENDBRANCH  15  16
ENDBRANCH  14  15
ENDBRANCH  13  14
ENDBRANCH  12  13
ENDBRANCH  11  12
ENDBRANCH   1  11
TORSDOF 14
ENDMDL
MODEL 5
REMARK VINA RESULT:    -6.029      3.098      4.850
REMARK INTER + INTRA:         -12.868
REMARK INTER:                 -10.336
REMARK INTRA:                  -2.532
REMARK UNBOUND:                -1.904
REMARK SMILES CCCCCCCCCCCCCCCC(=O)[O-]
REMARK SMILES IDX 9 1 10 2 11 3 12 4 13 5 14 6 15 7 16 8 17 9 18 10 8 11 7 12
REMARK SMILES IDX 6 13 5 14 4 15 3 16 2 17 1 18
REMARK H PARENT
REMARK INDEX MAP 4 1 6 2 8 3 10 4 12 5 14 6 16 7 18 8 2 9 1 10 3 11 5 12 7 13
REMARK INDEX MAP 9 14 11 15 13 16 15 17 17 18
ROOT
ATOM      1  C   UNL     1     -32.360  20.598   6.674  1.00  0.00     0.000 C 
ENDROOT
BRANCH   1   2
ATOM      2  C   UNL     1     -33.372  20.759   5.535  1.00  0.00     0.000 C 
BRANCH   2   3
ATOM      3  C   UNL     1     -34.831  20.448   5.887  1.00  0.00     0.000 C 
BRANCH   3   4
ATOM      4  C   UNL     1     -35.825  20.859   4.797  1.00  0.00     0.000 C 
BRANCH   4   5
ATOM      5  C   UNL     1     -37.259  20.876   5.328  1.00  0.00     0.000 C 
BRANCH   5   6
ATOM      6  C   UNL     1     -37.375  20.480   6.805  1.00  0.00     0.006 C 
BRANCH   6   7
ATOM      7  C   UNL     1     -38.255  21.407   7.642  1.00  0.00     0.053 C 
BRANCH   7   8
ATOM      8  C   UNL     1     -39.736  21.247   7.402  1.00  0.00     0.041 C 
ATOM      9  O   UNL     1     -40.346  20.200   7.575  1.00  0.00    -0.550 OA
ATOM     10  O   UNL     1     -40.320  22.379   6.938  1.00  0.00    -0.550 OA
ENDBRANCH   7   8
ENDBRANCH   6   7
ENDBRANCH   5   6
ENDBRANCH   4   5
ENDBRANCH   3   4
ENDBRANCH   2   3
ENDBRANCH   1   2
BRANCH   1  11
ATOM     11  C   UNL     1     -31.632  21.894   7.036  1.00  0.00     0.000 C 
BRANCH  11  12
ATOM     12  C   UNL     1     -32.119  23.059   6.171  1.00  0.00    -0.000 C 
BRANCH  12  13
ATOM     13  C   UNL     1     -32.113  24.372   6.956  1.00  0.00    -0.000 C 
BRANCH  13  14
ATOM     14  C   UNL     1     -33.515  24.898   7.277  1.00  0.00    -0.000 C 
BRANCH  14  15
ATOM     15  C   UNL     1     -34.677  23.942   6.979  1.00  0.00    -0.000 C 
BRANCH  15  16
ATOM     16  C   UNL     1     -35.420  23.474   8.234  1.00  0.00    -0.000 C 
BRANCH  16  17
ATOM     17  C   UNL     1     -34.516  22.757   9.241  1.00  0.00    -0.003 C 
ATOM     18  C   UNL     1     -34.874  21.293   9.446  1.00  0.00     0.004 C 
ENDBRANCH  16  17
ENDBRANCH  15  16
ENDBRANCH  14  15
ENDBRANCH  13  14
ENDBRANCH  12  13
ENDBRANCH  11  12
ENDBRANCH   1  11
TORSDOF 14
ENDMDL
MODEL 6
REMARK VINA RESULT:    -6.000      1.828      3.420
REMARK INTER + INTRA:         -12.815
REMARK INTER:                 -10.439
REMARK INTRA:                  -2.376
REMARK UNBOUND:                -1.904
REMARK SMILES CCCCCCCCCCCCCCCC(=O)[O-]
REMARK SMILES IDX 9 1 10 2 11 3 12 4 13 5 14 6 15 7 16 8 17 9 18 10 8 11 7 12
REMARK SMILES IDX 6 13 5 14 4 15 3 16 2 17 1 18
REMARK H PARENT
REMARK INDEX MAP 4 1 6 2 8 3 10 4 12 5 14 6 16 7 18 8 2 9 1 10 3 11 5 12 7 13
REMARK INDEX MAP 9 14 11 15 13 16 15 17 17 18
ROOT
ATOM      1  C   UNL     1     -36.401  21.084   6.290  1.00  0.00     0.000 C 
ENDROOT
BRANCH   1   2
ATOM      2  C   UNL     1     -36.779  21.796   7.593  1.00  0.00     0.000 C 
BRANCH   2   3
ATOM      3  C   UNL     1     -35.711  22.724   8.183  1.00  0.00     0.000 C 
BRANCH   3   4
ATOM      4  C   UNL     1     -35.007  22.144   9.412  1.00  0.00     0.000 C 
BRANCH   4   5
ATOM      5  C   UNL     1     -33.837  21.245   9.012  1.00  0.00     0.000 C 
BRANCH   5   6
ATOM      6  C   UNL     1     -34.078  19.756   9.291  1.00  0.00     0.006 C 
BRANCH   6   7
ATOM      7  C   UNL     1     -33.986  18.857   8.058  1.00  0.00     0.053 C 
BRANCH   7   8
ATOM      8  C   UNL     1     -32.580  18.463   7.679  1.00  0.00     0.041 C 
ATOM      9  O   UNL     1     -31.616  18.569   8.426  1.00  0.00    -0.550 OA
ATOM     10  O   UNL     1     -32.486  18.006   6.406  1.00  0.00    -0.550 OA
ENDBRANCH   7   8
ENDBRANCH   6   7
ENDBRANCH   5   6
ENDBRANCH   4   5
ENDBRANCH   3   4
ENDBRANCH   2   3
ENDBRANCH   1   2
BRANCH   1  11
ATOM     11  C   UNL     1     -35.318  21.808   5.487  1.00  0.00     0.000 C 
BRANCH  11  12
ATOM     12  C   UNL     1     -34.378  20.809   4.807  1.00  0.00    -0.000 C 
BRANCH  12  13
ATOM     13  C   UNL     1     -32.916  21.231   4.963  1.00  0.00    -0.000 C 
BRANCH  13  14
ATOM     14  C   UNL     1     -32.616  21.916   6.300  1.00  0.00    -0.000 C 
BRANCH  14  15
ATOM     15  C   UNL     1     -32.050  23.339   6.214  1.00  0.00    -0.000 C 
BRANCH  15  16
ATOM     16  C   UNL     1     -33.071  24.425   6.565  1.00  0.00    -0.000 C 
BRANCH  16  17
ATOM     17  C   UNL     1     -32.695  25.229   7.812  1.00  0.00    -0.003 C 
ATOM     18  C   UNL     1     -31.868  24.443   8.817  1.00  0.00     0.004 C 
ENDBRANCH  16  17
ENDBRANCH  15  16
ENDBRANCH  14  15
ENDBRANCH  13  14
ENDBRANCH  12  13
ENDBRANCH  11  12
ENDBRANCH   1  11
TORSDOF 14
ENDMDL
MODEL 7
REMARK VINA RESULT:    -5.957      1.635      3.957
REMARK INTER + INTRA:         -12.737
REMARK INTER:                 -10.361
REMARK INTRA:                  -2.376
REMARK UNBOUND:                -1.904
REMARK SMILES CCCCCCCCCCCCCCCC(=O)[O-]
REMARK SMILES IDX 9 1 10 2 11 3 12 4 13 5 14 6 15 7 16 8 17 9 18 10 8 11 7 12
REMARK SMILES IDX 6 13 5 14 4 15 3 16 2 17 1 18
REMARK H PARENT
REMARK INDEX MAP 4 1 6 2 8 3 10 4 12 5 14 6 16 7 18 8 2 9 1 10 3 11 5 12 7 13
REMARK INDEX MAP 9 14 11 15 13 16 15 17 17 18
ROOT
ATOM      1  C   UNL     1     -34.028  19.307   9.768  1.00  0.00     0.000 C 
ENDROOT
BRANCH   1   2
ATOM      2  C   UNL     1     -34.738  20.564  10.279  1.00  0.00     0.000 C 
BRANCH   2   3
ATOM      3  C   UNL     1     -34.051  21.897   9.962  1.00  0.00     0.000 C 
BRANCH   3   4
ATOM      4  C   UNL     1     -34.882  22.816   9.061  1.00  0.00     0.000 C 
BRANCH   4   5
ATOM      5  C   UNL     1     -36.029  22.054   8.395  1.00  0.00     0.000 C 
BRANCH   5   6
ATOM      6  C   UNL     1     -36.106  22.257   6.877  1.00  0.00     0.006 C 
BRANCH   6   7
ATOM      7  C   UNL     1     -36.593  21.036   6.098  1.00  0.00     0.053 C 
BRANCH   7   8
ATOM      8  C   UNL     1     -36.073  20.952   4.684  1.00  0.00     0.041 C 
ATOM      9  O   UNL     1     -36.511  20.179   3.841  1.00  0.00    -0.550 OA
ATOM     10  O   UNL     1     -35.042  21.800   4.450  1.00  0.00    -0.550 OA
ENDBRANCH   7   8
ENDBRANCH   6   7
ENDBRANCH   5   6
ENDBRANCH   4   5
ENDBRANCH   3   4
ENDBRANCH   2   3
ENDBRANCH   1   2
BRANCH   1  11
ATOM     11  C   UNL     1     -34.013  19.188   8.242  1.00  0.00     0.000 C 
BRANCH  11  12
ATOM     12  C   UNL     1     -32.622  18.798   7.736  1.00  0.00    -0.000 C 
BRANCH  12  13
ATOM     13  C   UNL     1     -31.720  20.025   7.594  1.00  0.00    -0.000 C 
BRANCH  13  14
ATOM     14  C   UNL     1     -32.355  21.161   6.786  1.00  0.00    -0.000 C 
BRANCH  14  15
ATOM     15  C   UNL     1     -31.652  22.521   6.873  1.00  0.00    -0.000 C 
BRANCH  15  16
ATOM     16  C   UNL     1     -32.539  23.695   6.446  1.00  0.00    -0.000 C 
BRANCH  16  17
ATOM     17  C   UNL     1     -32.492  24.875   7.421  1.00  0.00    -0.003 C 
ATOM     18  C   UNL     1     -31.716  24.582   8.695  1.00  0.00     0.004 C 
ENDBRANCH  16  17
ENDBRANCH  15  16
ENDBRANCH  14  15
ENDBRANCH  13  14
ENDBRANCH  12  13
ENDBRANCH  11  12
ENDBRANCH   1  11
TORSDOF 14
ENDMDL
MODEL 8
REMARK VINA RESULT:    -5.955      2.955      4.481
REMARK INTER + INTRA:         -12.733
REMARK INTER:                 -10.566
REMARK INTRA:                  -2.166
REMARK UNBOUND:                -1.904
REMARK SMILES CCCCCCCCCCCCCCCC(=O)[O-]
REMARK SMILES IDX 9 1 10 2 11 3 12 4 13 5 14 6 15 7 16 8 17 9 18 10 8 11 7 12
REMARK SMILES IDX 6 13 5 14 4 15 3 16 2 17 1 18
REMARK H PARENT
REMARK INDEX MAP 4 1 6 2 8 3 10 4 12 5 14 6 16 7 18 8 2 9 1 10 3 11 5 12 7 13
REMARK INDEX MAP 9 14 11 15 13 16 15 17 17 18
ROOT
ATOM      1  C   UNL     1     -34.406  19.648   7.877  1.00  0.00     0.000 C 
ENDROOT
BRANCH   1   2
ATOM      2  C   UNL     1     -33.704  20.397   6.740  1.00  0.00     0.000 C 
BRANCH   2   3
ATOM      3  C   UNL     1     -34.223  20.108   5.327  1.00  0.00     0.000 C 
BRANCH   3   4
ATOM      4  C   UNL     1     -35.266  21.118   4.840  1.00  0.00     0.000 C 
BRANCH   4   5
ATOM      5  C   UNL     1     -36.687  20.643   5.146  1.00  0.00     0.000 C 
BRANCH   5   6
ATOM      6  C   UNL     1     -37.300  21.293   6.393  1.00  0.00     0.006 C 
BRANCH   6   7
ATOM      7  C   UNL     1     -38.199  20.368   7.213  1.00  0.00     0.053 C 
BRANCH   7   8
ATOM      8  C   UNL     1     -39.646  20.793   7.267  1.00  0.00     0.041 C 
ATOM      9  O   UNL     1     -40.564  20.051   7.593  1.00  0.00    -0.550 OA
ATOM     10  O   UNL     1     -39.831  22.079   6.883  1.00  0.00    -0.550 OA
ENDBRANCH   7   8
ENDBRANCH   6   7
ENDBRANCH   5   6
ENDBRANCH   4   5
ENDBRANCH   3   4
ENDBRANCH   2   3
ENDBRANCH   1   2
BRANCH   1  11
ATOM     11  C   UNL     1     -34.527  20.464   9.166  1.00  0.00     0.000 C 
BRANCH  11  12
ATOM     12  C   UNL     1     -34.014  21.892   8.963  1.00  0.00    -0.000 C 
BRANCH  12  13
ATOM     13  C   UNL     1     -35.142  22.913   9.122  1.00  0.00    -0.000 C 
BRANCH  13  14
ATOM     14  C   UNL     1     -35.335  23.807   7.894  1.00  0.00    -0.000 C 
BRANCH  14  15
ATOM     15  C   UNL     1     -34.189  23.806   6.875  1.00  0.00    -0.000 C 
BRANCH  15  16
ATOM     16  C   UNL     1     -33.309  25.058   6.943  1.00  0.00    -0.000 C 
BRANCH  16  17
ATOM     17  C   UNL     1     -31.883  24.770   7.424  1.00  0.00    -0.003 C 
ATOM     18  C   UNL     1     -31.756  24.689   8.937  1.00  0.00     0.004 C 
ENDBRANCH  16  17
ENDBRANCH  15  16
ENDBRANCH  14  15
ENDBRANCH  13  14
ENDBRANCH  12  13
ENDBRANCH  11  12
ENDBRANCH   1  11
TORSDOF 14
ENDMDL
MODEL 9
REMARK VINA RESULT:    -5.928      1.755      4.705
REMARK INTER + INTRA:         -12.683
REMARK INTER:                 -10.986
REMARK INTRA:                  -1.697
REMARK UNBOUND:                -1.904
REMARK SMILES CCCCCCCCCCCCCCCC(=O)[O-]
REMARK SMILES IDX 9 1 10 2 11 3 12 4 13 5 14 6 15 7 16 8 17 9 18 10 8 11 7 12
REMARK SMILES IDX 6 13 5 14 4 15 3 16 2 17 1 18
REMARK H PARENT
REMARK INDEX MAP 4 1 6 2 8 3 10 4 12 5 14 6 16 7 18 8 2 9 1 10 3 11 5 12 7 13
REMARK INDEX MAP 9 14 11 15 13 16 15 17 17 18
ROOT
ATOM      1  C   UNL     1     -33.266  23.063  10.121  1.00  0.00     0.000 C 
ENDROOT
BRANCH   1   2
ATOM      2  C   UNL     1     -32.204  23.507   9.110  1.00  0.00     0.000 C 
BRANCH   2   3
ATOM      3  C   UNL     1     -32.465  24.845   8.409  1.00  0.00     0.000 C 
BRANCH   3   4
ATOM      4  C   UNL     1     -32.426  24.754   6.881  1.00  0.00     0.000 C 
BRANCH   4   5
ATOM      5  C   UNL     1     -33.040  23.444   6.385  1.00  0.00     0.000 C 
BRANCH   5   6
ATOM      6  C   UNL     1     -32.010  22.446   5.841  1.00  0.00     0.006 C 
BRANCH   6   7
ATOM      7  C   UNL     1     -32.495  20.998   5.790  1.00  0.00     0.053 C 
BRANCH   7   8
ATOM      8  C   UNL     1     -32.988  20.553   4.435  1.00  0.00     0.041 C 
ATOM      9  O   UNL     1     -33.828  21.158   3.782  1.00  0.00    -0.550 OA
ATOM     10  O   UNL     1     -32.426  19.389   4.026  1.00  0.00    -0.550 OA
ENDBRANCH   7   8
ENDBRANCH   6   7
ENDBRANCH   5   6
ENDBRANCH   4   5
ENDBRANCH   3   4
ENDBRANCH   2   3
ENDBRANCH   1   2
BRANCH   1  11
ATOM     11  C   UNL     1     -34.635  22.792   9.494  1.00  0.00     0.000 C 
BRANCH  11  12
ATOM     12  C   UNL     1     -34.961  21.297   9.511  1.00  0.00    -0.000 C 
BRANCH  12  13
ATOM     13  C   UNL     1     -35.271  20.782   8.104  1.00  0.00    -0.000 C 
BRANCH  13  14
ATOM     14  C   UNL     1     -36.100  21.758   7.264  1.00  0.00    -0.000 C 
BRANCH  14  15
ATOM     15  C   UNL     1     -36.659  21.205   5.947  1.00  0.00    -0.000 C 
BRANCH  15  16
ATOM     16  C   UNL     1     -37.848  20.259   6.138  1.00  0.00    -0.000 C 
BRANCH  16  17
ATOM     17  C   UNL     1     -39.155  20.986   6.465  1.00  0.00    -0.003 C 
ATOM     18  C   UNL     1     -39.643  20.754   7.886  1.00  0.00     0.004 C 
ENDBRANCH  16  17
ENDBRANCH  15  16
ENDBRANCH  14  15
ENDBRANCH  13  14
ENDBRANCH  12  13
ENDBRANCH  11  12
ENDBRANCH   1  11
TORSDOF 14
ENDMDL
MODEL 10
REMARK VINA RESULT:    -5.924      1.609      4.580
REMARK INTER + INTRA:         -12.677
REMARK INTER:                 -10.148
REMARK INTRA:                  -2.529
REMARK UNBOUND:                -1.904
REMARK SMILES CCCCCCCCCCCCCCCC(=O)[O-]
REMARK SMILES IDX 9 1 10 2 11 3 12 4 13 5 14 6 15 7 16 8 17 9 18 10 8 11 7 12
REMARK SMILES IDX 6 13 5 14 4 15 3 16 2 17 1 18
REMARK H PARENT
REMARK INDEX MAP 4 1 6 2 8 3 10 4 12 5 14 6 16 7 18 8 2 9 1 10 3 11 5 12 7 13
REMARK INDEX MAP 9 14 11 15 13 16 15 17 17 18
ROOT
ATOM      1  C   UNL     1     -32.285  22.873   7.736  1.00  0.00     0.000 C 
ENDROOT
BRANCH   1   2
ATOM      2  C   UNL     1     -33.090  24.175   7.781  1.00  0.00     0.000 C 
BRANCH   2   3
ATOM      3  C   UNL     1     -34.445  24.150   7.065  1.00  0.00     0.000 C 
BRANCH   3   4
ATOM      4  C   UNL     1     -35.626  23.873   7.999  1.00  0.00     0.000 C 
BRANCH   4   5
ATOM      5  C   UNL     1     -36.500  22.735   7.470  1.00  0.00     0.000 C 
BRANCH   5   6
ATOM      6  C   UNL     1     -35.726  21.686   6.662  1.00  0.00     0.006 C 
BRANCH   6   7
ATOM      7  C   UNL     1     -36.567  20.930   5.634  1.00  0.00     0.053 C 
BRANCH   7   8
ATOM      8  C   UNL     1     -35.925  20.805   4.275  1.00  0.00     0.041 C 
ATOM      9  O   UNL     1     -34.804  21.219   4.008  1.00  0.00    -0.550 OA
ATOM     10  O   UNL     1     -36.735  20.215   3.362  1.00  0.00    -0.550 OA
ENDBRANCH   7   8
ENDBRANCH   6   7
ENDBRANCH   5   6
ENDBRANCH   4   5
ENDBRANCH   3   4
ENDBRANCH   2   3
ENDBRANCH   1   2
BRANCH   1  11
ATOM     11  C   UNL     1     -32.027  22.360   6.317  1.00  0.00     0.000 C 
BRANCH  11  12
ATOM     12  C   UNL     1     -32.141  20.834   6.256  1.00  0.00    -0.000 C 
BRANCH  12  13
ATOM     13  C   UNL     1     -32.262  20.232   7.657  1.00  0.00    -0.000 C 
BRANCH  13  14
ATOM     14  C   UNL     1     -33.210  19.031   7.726  1.00  0.00    -0.000 C 
BRANCH  14  15
ATOM     15  C   UNL     1     -34.412  19.177   8.666  1.00  0.00    -0.000 C 
BRANCH  15  16
ATOM     16  C   UNL     1     -34.052  19.770  10.031  1.00  0.00    -0.000 C 
BRANCH  16  17
ATOM     17  C   UNL     1     -34.935  20.958  10.427  1.00  0.00    -0.003 C 
ATOM     18  C   UNL     1     -34.148  22.179  10.876  1.00  0.00     0.004 C 
ENDBRANCH  16  17
ENDBRANCH  15  16
ENDBRANCH  14  15
ENDBRANCH  13  14
ENDBRANCH  12  13
ENDBRANCH  11  12
ENDBRANCH   1  11
TORSDOF 14
ENDMDL
MODEL 11
REMARK VINA RESULT:    -5.919      1.207      3.170
REMARK INTER + INTRA:         -12.667
REMARK INTER:                 -10.565
REMARK INTRA:                  -2.101
REMARK UNBOUND:                -1.904
REMARK SMILES CCCCCCCCCCCCCCCC(=O)[O-]
REMARK SMILES IDX 9 1 10 2 11 3 12 4 13 5 14 6 15 7 16 8 17 9 18 10 8 11 7 12
REMARK SMILES IDX 6 13 5 14 4 15 3 16 2 17 1 18
REMARK H PARENT
REMARK INDEX MAP 4 1 6 2 8 3 10 4 12 5 14 6 16 7 18 8 2 9 1 10 3 11 5 12 7 13
REMARK INDEX MAP 9 14 11 15 13 16 15 17 17 18
ROOT
ATOM      1  C   UNL     1     -34.125  21.769  10.994  1.00  0.00     0.000 C 
ENDROOT
BRANCH   1   2
ATOM      2  C   UNL     1     -34.805  20.786  10.037  1.00  0.00     0.000 C 
BRANCH   2   3
ATOM      3  C   UNL     1     -34.066  19.465   9.796  1.00  0.00     0.000 C 
BRANCH   3   4
ATOM      4  C   UNL     1     -34.207  18.936   8.366  1.00  0.00     0.000 C 
BRANCH   4   5
ATOM      5  C   UNL     1     -32.840  18.675   7.731  1.00  0.00     0.000 C 
BRANCH   5   6
ATOM      6  C   UNL     1     -32.313  19.849   6.897  1.00  0.00     0.006 C 
BRANCH   6   7
ATOM      7  C   UNL     1     -32.662  19.778   5.410  1.00  0.00     0.053 C 
BRANCH   7   8
ATOM      8  C   UNL     1     -32.905  21.119   4.763  1.00  0.00     0.041 C 
ATOM      9  O   UNL     1     -32.263  22.128   5.020  1.00  0.00    -0.550 OA
ATOM     10  O   UNL     1     -33.938  21.100   3.885  1.00  0.00    -0.550 OA
ENDBRANCH   7   8
ENDBRANCH   6   7
ENDBRANCH   5   6
ENDBRANCH   4   5
ENDBRANCH   3   4
ENDBRANCH   2   3
ENDBRANCH   1   2
BRANCH   1  11
ATOM     11  C   UNL     1     -33.627  23.045  10.312  1.00  0.00     0.000 C 
BRANCH  11  12
ATOM     12  C   UNL     1     -33.271  22.782   8.846  1.00  0.00    -0.000 C 
BRANCH  12  13
ATOM     13  C   UNL     1     -33.566  24.006   7.977  1.00  0.00    -0.000 C 
BRANCH  13  14
ATOM     14  C   UNL     1     -34.630  23.752   6.905  1.00  0.00    -0.000 C 
BRANCH  14  15
ATOM     15  C   UNL     1     -35.883  22.999   7.366  1.00  0.00    -0.000 C 
BRANCH  15  16
ATOM     16  C   UNL     1     -36.126  21.691   6.607  1.00  0.00    -0.000 C 
BRANCH  16  17
ATOM     17  C   UNL     1     -37.249  20.841   7.209  1.00  0.00    -0.003 C 
ATOM     18  C   UNL     1     -38.603  21.532   7.209  1.00  0.00     0.004 C 
ENDBRANCH  16  17
ENDBRANCH  15  16
ENDBRANCH  14  15
ENDBRANCH  13  14
ENDBRANCH  12  13
ENDBRANCH  11  12
ENDBRANCH   1  11
TORSDOF 14
ENDMDL
MODEL 12
REMARK VINA RESULT:    -5.894      1.977      4.497
REMARK INTER + INTRA:         -12.622
REMARK INTER:                 -10.905
REMARK INTRA:                  -1.717
REMARK UNBOUND:                -1.904
REMARK SMILES CCCCCCCCCCCCCCCC(=O)[O-]
REMARK SMILES IDX 9 1 10 2 11 3 12 4 13 5 14 6 15 7 16 8 17 9 18 10 8 11 7 12
REMARK SMILES IDX 6 13 5 14 4 15 3 16 2 17 1 18
REMARK H PARENT
REMARK INDEX MAP 4 1 6 2 8 3 10 4 12 5 14 6 16 7 18 8 2 9 1 10 3 11 5 12 7 13
REMARK INDEX MAP 9 14 11 15 13 16 15 17 17 18
ROOT
ATOM      1  C   UNL     1     -32.289  24.130   9.114  1.00  0.00     0.000 C 
ENDROOT
BRANCH   1   2
ATOM      2  C   UNL     1     -33.365  23.042   9.170  1.00  0.00     0.000 C 
BRANCH   2   3
ATOM      3  C   UNL     1     -33.870  22.670  10.569  1.00  0.00     0.000 C 
BRANCH   3   4
ATOM      4  C   UNL     1     -34.625  21.339  10.614  1.00  0.00     0.000 C 
BRANCH   4   5
ATOM      5  C   UNL     1     -34.665  20.674   9.237  1.00  0.00     0.000 C 
BRANCH   5   6
ATOM      6  C   UNL     1     -33.935  19.327   9.180  1.00  0.00     0.006 C 
BRANCH   6   7
ATOM      7  C   UNL     1     -33.766  18.757   7.772  1.00  0.00     0.053 C 
BRANCH   7   8
ATOM      8  C   UNL     1     -32.337  18.471   7.383  1.00  0.00     0.041 C 
ATOM      9  O   UNL     1     -32.011  17.906   6.348  1.00  0.00    -0.550 OA
ATOM     10  O   UNL     1     -31.445  18.878   8.319  1.00  0.00    -0.550 OA
ENDBRANCH   7   8
ENDBRANCH   6   7
ENDBRANCH   5   6
ENDBRANCH   4   5
ENDBRANCH   3   4
ENDBRANCH   2   3
ENDBRANCH   1   2
BRANCH   1  11
ATOM     11  C   UNL     1     -32.116  24.752   7.726  1.00  0.00     0.000 C 
BRANCH  11  12
ATOM     12  C   UNL     1     -32.824  23.915   6.657  1.00  0.00    -0.000 C 
BRANCH  12  13
ATOM     13  C   UNL     1     -31.863  22.914   6.012  1.00  0.00    -0.000 C 
BRANCH  13  14
ATOM     14  C   UNL     1     -32.555  21.651   5.492  1.00  0.00    -0.000 C 
BRANCH  14  15
ATOM     15  C   UNL     1     -34.064  21.556   5.750  1.00  0.00    -0.000 C 
BRANCH  15  16
ATOM     16  C   UNL     1     -34.823  20.791   4.662  1.00  0.00    -0.000 C 
BRANCH  16  17
ATOM     17  C   UNL     1     -36.345  20.914   4.785  1.00  0.00    -0.003 C 
ATOM     18  C   UNL     1     -36.823  21.158   6.207  1.00  0.00     0.004 C 
ENDBRANCH  16  17
ENDBRANCH  15  16
ENDBRANCH  14  15
ENDBRANCH  13  14
ENDBRANCH  12  13
ENDBRANCH  11  12
ENDBRANCH   1  11
TORSDOF 14
ENDMDL
MODEL 13
REMARK VINA RESULT:    -5.862      1.517      3.004
REMARK INTER + INTRA:         -12.563
REMARK INTER:                 -10.348
REMARK INTRA:                  -2.214
REMARK UNBOUND:                -1.904
REMARK SMILES CCCCCCCCCCCCCCCC(=O)[O-]
REMARK SMILES IDX 9 1 10 2 11 3 12 4 13 5 14 6 15 7 16 8 17 9 18 10 8 11 7 12
REMARK SMILES IDX 6 13 5 14 4 15 3 16 2 17 1 18
REMARK H PARENT
REMARK INDEX MAP 4 1 6 2 8 3 10 4 12 5 14 6 16 7 18 8 2 9 1 10 3 11 5 12 7 13
REMARK INDEX MAP 9 14 11 15 13 16 15 17 17 18
ROOT
ATOM      1  C   UNL     1     -31.890  24.227   7.786  1.00  0.00     0.000 C 
ENDROOT
BRANCH   1   2
ATOM      2  C   UNL     1     -31.855  22.847   7.122  1.00  0.00     0.000 C 
BRANCH   2   3
ATOM      3  C   UNL     1     -31.849  21.646   8.074  1.00  0.00     0.000 C 
BRANCH   3   4
ATOM      4  C   UNL     1     -31.199  20.394   7.477  1.00  0.00     0.000 C 
BRANCH   4   5
ATOM      5  C   UNL     1     -32.033  19.144   7.761  1.00  0.00     0.000 C 
BRANCH   5   6
ATOM      6  C   UNL     1     -33.346  19.084   6.970  1.00  0.00     0.006 C 
BRANCH   6   7
ATOM      7  C   UNL     1     -33.207  19.419   5.485  1.00  0.00     0.053 C 
BRANCH   7   8
ATOM      8  C   UNL     1     -34.085  20.554   5.018  1.00  0.00     0.041 C 
ATOM      9  O   UNL     1     -35.119  20.893   5.580  1.00  0.00    -0.550 OA
ATOM     10  O   UNL     1     -33.628  21.142   3.886  1.00  0.00    -0.550 OA
ENDBRANCH   7   8
ENDBRANCH   6   7
ENDBRANCH   5   6
ENDBRANCH   4   5
ENDBRANCH   3   4
ENDBRANCH   2   3
ENDBRANCH   1   2
BRANCH   1  11
ATOM     11  C   UNL     1     -33.157  25.026   7.475  1.00  0.00     0.000 C 
BRANCH  11  12
ATOM     12  C   UNL     1     -34.205  24.149   6.785  1.00  0.00    -0.000 C 
BRANCH  12  13
ATOM     13  C   UNL     1     -35.407  23.901   7.698  1.00  0.00    -0.000 C 
BRANCH  13  14
ATOM     14  C   UNL     1     -35.216  22.719   8.653  1.00  0.00    -0.000 C 
BRANCH  14  15
ATOM     15  C   UNL     1     -34.687  23.064  10.051  1.00  0.00    -0.000 C 
BRANCH  15  16
ATOM     16  C   UNL     1     -34.301  21.834  10.879  1.00  0.00    -0.000 C 
BRANCH  16  17
ATOM     17  C   UNL     1     -34.688  20.510  10.213  1.00  0.00    -0.003 C 
ATOM     18  C   UNL     1     -34.195  19.284  10.965  1.00  0.00     0.004 C 
ENDBRANCH  16  17
ENDBRANCH  15  16
ENDBRANCH  14  15
ENDBRANCH  13  14
ENDBRANCH  12  13
ENDBRANCH  11  12
ENDBRANCH   1  11
TORSDOF 14
ENDMDL
MODEL 14
REMARK VINA RESULT:    -5.853      1.579      3.296
REMARK INTER + INTRA:         -12.548
REMARK INTER:                 -10.784
REMARK INTRA:                  -1.763
REMARK UNBOUND:                -1.904
REMARK SMILES CCCCCCCCCCCCCCCC(=O)[O-]
REMARK SMILES IDX 9 1 10 2 11 3 12 4 13 5 14 6 15 7 16 8 17 9 18 10 8 11 7 12
REMARK SMILES IDX 6 13 5 14 4 15 3 16 2 17 1 18
REMARK H PARENT
REMARK INDEX MAP 4 1 6 2 8 3 10 4 12 5 14 6 16 7 18 8 2 9 1 10 3 11 5 12 7 13
REMARK INDEX MAP 9 14 11 15 13 16 15 17 17 18
ROOT
ATOM      1  C   UNL     1     -35.363  23.153   6.967  1.00  0.00     0.000 C 
ENDROOT
BRANCH   1   2
ATOM      2  C   UNL     1     -36.699  23.029   7.707  1.00  0.00     0.000 C 
BRANCH   2   3
ATOM      3  C   UNL     1     -37.701  22.029   7.117  1.00  0.00     0.000 C 
BRANCH   3   4
ATOM      4  C   UNL     1     -37.074  20.684   6.741  1.00  0.00     0.000 C 
BRANCH   4   5
ATOM      5  C   UNL     1     -37.172  20.425   5.237  1.00  0.00     0.000 C 
BRANCH   5   6
ATOM      6  C   UNL     1     -35.885  20.752   4.469  1.00  0.00     0.006 C 
BRANCH   6   7
ATOM      7  C   UNL     1     -34.603  20.260   5.142  1.00  0.00     0.053 C 
BRANCH   7   8
ATOM      8  C   UNL     1     -33.338  20.873   4.594  1.00  0.00     0.041 C 
ATOM      9  O   UNL     1     -32.515  21.467   5.279  1.00  0.00    -0.550 OA
ATOM     10  O   UNL     1     -33.219  20.726   3.252  1.00  0.00    -0.550 OA
ENDBRANCH   7   8
ENDBRANCH   6   7
ENDBRANCH   5   6
ENDBRANCH   4   5
ENDBRANCH   3   4
ENDBRANCH   2   3
ENDBRANCH   1   2
BRANCH   1  11
ATOM     11  C   UNL     1     -34.788  24.571   6.971  1.00  0.00     0.000 C 
BRANCH  11  12
ATOM     12  C   UNL     1     -33.269  24.549   6.783  1.00  0.00    -0.000 C 
BRANCH  12  13
ATOM     13  C   UNL     1     -32.560  25.290   7.917  1.00  0.00    -0.000 C 
BRANCH  13  14
ATOM     14  C   UNL     1     -31.869  24.358   8.918  1.00  0.00    -0.000 C 
BRANCH  14  15
ATOM     15  C   UNL     1     -32.554  23.008   9.163  1.00  0.00    -0.000 C 
BRANCH  15  16
ATOM     16  C   UNL     1     -33.476  23.004  10.385  1.00  0.00    -0.000 C 
BRANCH  16  17
ATOM     17  C   UNL     1     -34.521  21.884  10.352  1.00  0.00    -0.003 C 
ATOM     18  C   UNL     1     -34.165  20.747   9.407  1.00  0.00     0.004 C 
ENDBRANCH  16  17
ENDBRANCH  15  16
ENDBRANCH  14  15
ENDBRANCH  13  14
ENDBRANCH  12  13
ENDBRANCH  11  12
ENDBRANCH   1  11
TORSDOF 14
ENDMDL
MODEL 15
REMARK VINA RESULT:    -5.786      1.742      4.053
REMARK INTER + INTRA:         -12.425
REMARK INTER:                 -10.515
REMARK INTRA:                  -1.910
REMARK UNBOUND:                -1.904
REMARK SMILES CCCCCCCCCCCCCCCC(=O)[O-]
REMARK SMILES IDX 9 1 10 2 11 3 12 4 13 5 14 6 15 7 16 8 17 9 18 10 8 11 7 12
REMARK SMILES IDX 6 13 5 14 4 15 3 16 2 17 1 18
REMARK H PARENT
REMARK INDEX MAP 4 1 6 2 8 3 10 4 12 5 14 6 16 7 18 8 2 9 1 10 3 11 5 12 7 13
REMARK INDEX MAP 9 14 11 15 13 16 15 17 17 18
ROOT
ATOM      1  C   UNL     1     -32.503  23.083   9.079  1.00  0.00     0.000 C 
ENDROOT
BRANCH   1   2
ATOM      2  C   UNL     1     -33.555  22.922  10.181  1.00  0.00     0.000 C 
BRANCH   2   3
ATOM      3  C   UNL     1     -34.596  21.819   9.956  1.00  0.00     0.000 C 
BRANCH   3   4
ATOM      4  C   UNL     1     -34.049  20.406  10.176  1.00  0.00     0.000 C 
BRANCH   4   5
ATOM      5  C   UNL     1     -34.370  19.494   8.991  1.00  0.00     0.000 C 
BRANCH   5   6
ATOM      6  C   UNL     1     -33.714  19.936   7.677  1.00  0.00     0.006 C 
BRANCH   6   7
ATOM      7  C   UNL     1     -32.207  19.693   7.608  1.00  0.00     0.053 C 
BRANCH   7   8
ATOM      8  C   UNL     1     -31.814  18.393   6.952  1.00  0.00     0.041 C 
ATOM      9  O   UNL     1     -30.886  17.690   7.332  1.00  0.00    -0.550 OA
ATOM     10  O   UNL     1     -32.577  18.096   5.872  1.00  0.00    -0.550 OA
ENDBRANCH   7   8
ENDBRANCH   6   7
ENDBRANCH   5   6
ENDBRANCH   4   5
ENDBRANCH   3   4
ENDBRANCH   2   3
ENDBRANCH   1   2
BRANCH   1  11
ATOM     11  C   UNL     1     -32.050  24.530   8.871  1.00  0.00     0.000 C 
BRANCH  11  12
ATOM     12  C   UNL     1     -32.850  25.200   7.750  1.00  0.00    -0.000 C 
BRANCH  12  13
ATOM     13  C   UNL     1     -33.450  24.161   6.801  1.00  0.00    -0.000 C 
BRANCH  13  14
ATOM     14  C   UNL     1     -34.971  24.031   6.920  1.00  0.00    -0.000 C 
BRANCH  14  15
ATOM     15  C   UNL     1     -35.560  22.666   6.543  1.00  0.00    -0.000 C 
BRANCH  15  16
ATOM     16  C   UNL     1     -36.869  22.344   7.271  1.00  0.00    -0.000 C 
BRANCH  16  17
ATOM     17  C   UNL     1     -37.283  20.874   7.149  1.00  0.00    -0.003 C 
ATOM     18  C   UNL     1     -37.801  20.500   5.769  1.00  0.00     0.004 C 
ENDBRANCH  16  17
ENDBRANCH  15  16
ENDBRANCH  14  15
ENDBRANCH  13  14
ENDBRANCH  12  13
ENDBRANCH  11  12
ENDBRANCH   1  11
TORSDOF 14
ENDMDL
MODEL 16
REMARK VINA RESULT:    -5.752      2.713      5.255
REMARK INTER + INTRA:         -12.364
REMARK INTER:                 -10.284
REMARK INTRA:                  -2.080
REMARK UNBOUND:                -1.904
REMARK SMILES CCCCCCCCCCCCCCCC(=O)[O-]
REMARK SMILES IDX 9 1 10 2 11 3 12 4 13 5 14 6 15 7 16 8 17 9 18 10 8 11 7 12
REMARK SMILES IDX 6 13 5 14 4 15 3 16 2 17 1 18
REMARK H PARENT
REMARK INDEX MAP 4 1 6 2 8 3 10 4 12 5 14 6 16 7 18 8 2 9 1 10 3 11 5 12 7 13
REMARK INDEX MAP 9 14 11 15 13 16 15 17 17 18
ROOT
ATOM      1  C   UNL     1     -32.497  23.249   9.109  1.00  0.00     0.000 C 
ENDROOT
BRANCH   1   2
ATOM      2  C   UNL     1     -33.870  23.091   9.770  1.00  0.00     0.000 C 
BRANCH   2   3
ATOM      3  C   UNL     1     -34.873  22.200   9.027  1.00  0.00     0.000 C 
BRANCH   3   4
ATOM      4  C   UNL     1     -35.807  22.976   8.094  1.00  0.00     0.000 C 
BRANCH   4   5
ATOM      5  C   UNL     1     -35.864  22.336   6.706  1.00  0.00     0.000 C 
BRANCH   5   6
ATOM      6  C   UNL     1     -36.867  21.180   6.600  1.00  0.00     0.006 C 
BRANCH   6   7
ATOM      7  C   UNL     1     -38.102  21.329   7.488  1.00  0.00     0.053 C 
BRANCH   7   8
ATOM      8  C   UNL     1     -39.370  20.771   6.890  1.00  0.00     0.041 C 
ATOM      9  O   UNL     1     -40.309  20.350   7.552  1.00  0.00    -0.550 OA
ATOM     10  O   UNL     1     -39.350  20.754   5.534  1.00  0.00    -0.550 OA
ENDBRANCH   7   8
ENDBRANCH   6   7
ENDBRANCH   5   6
ENDBRANCH   4   5
ENDBRANCH   3   4
ENDBRANCH   2   3
ENDBRANCH   1   2
BRANCH   1  11
ATOM     11  C   UNL     1     -32.419  24.422   8.129  1.00  0.00     0.000 C 
BRANCH  11  12
ATOM     12  C   UNL     1     -32.208  23.927   6.696  1.00  0.00    -0.000 C 
BRANCH  12  13
ATOM     13  C   UNL     1     -31.805  22.452   6.673  1.00  0.00    -0.000 C 
BRANCH  13  14
ATOM     14  C   UNL     1     -32.436  21.664   5.520  1.00  0.00    -0.000 C 
BRANCH  14  15
ATOM     15  C   UNL     1     -32.783  20.200   5.817  1.00  0.00    -0.000 C 
BRANCH  15  16
ATOM     16  C   UNL     1     -33.027  19.919   7.303  1.00  0.00    -0.000 C 
BRANCH  16  17
ATOM     17  C   UNL     1     -32.042  18.908   7.897  1.00  0.00    -0.003 C 
ATOM     18  C   UNL     1     -31.215  18.177   6.852  1.00  0.00     0.004 C 
ENDBRANCH  16  17
ENDBRANCH  15  16
ENDBRANCH  14  15
ENDBRANCH  13  14
ENDBRANCH  12  13
ENDBRANCH  11  12
ENDBRANCH   1  11
TORSDOF 14
ENDMDL
MODEL 17
REMARK VINA RESULT:    -5.749      3.206      5.197
REMARK INTER + INTRA:         -12.357
REMARK INTER:                 -10.171
REMARK INTRA:                  -2.186
REMARK UNBOUND:                -1.904
REMARK SMILES CCCCCCCCCCCCCCCC(=O)[O-]
REMARK SMILES IDX 9 1 10 2 11 3 12 4 13 5 14 6 15 7 16 8 17 9 18 10 8 11 7 12
REMARK SMILES IDX 6 13 5 14 4 15 3 16 2 17 1 18
REMARK H PARENT
REMARK INDEX MAP 4 1 6 2 8 3 10 4 12 5 14 6 16 7 18 8 2 9 1 10 3 11 5 12 7 13
REMARK INDEX MAP 9 14 11 15 13 16 15 17 17 18
ROOT
ATOM      1  C   UNL     1     -34.005  19.856   5.876  1.00  0.00     0.000 C 
ENDROOT
BRANCH   1   2
ATOM      2  C   UNL     1     -34.307  20.871   4.770  1.00  0.00     0.000 C 
BRANCH   2   3
ATOM      3  C   UNL     1     -35.729  21.442   4.754  1.00  0.00     0.000 C 
BRANCH   3   4
ATOM      4  C   UNL     1     -36.773  20.470   4.197  1.00  0.00     0.000 C 
BRANCH   4   5
ATOM      5  C   UNL     1     -37.998  20.386   5.108  1.00  0.00     0.000 C 
BRANCH   5   6
ATOM      6  C   UNL     1     -37.684  20.627   6.590  1.00  0.00     0.006 C 
BRANCH   6   7
ATOM      7  C   UNL     1     -38.421  21.814   7.209  1.00  0.00     0.053 C 
BRANCH   7   8
ATOM      8  C   UNL     1     -39.878  21.558   7.503  1.00  0.00     0.041 C 
ATOM      9  O   UNL     1     -40.748  22.417   7.444  1.00  0.00    -0.550 OA
ATOM     10  O   UNL     1     -40.123  20.278   7.876  1.00  0.00    -0.550 OA
ENDBRANCH   7   8
ENDBRANCH   6   7
ENDBRANCH   5   6
ENDBRANCH   4   5
ENDBRANCH   3   4
ENDBRANCH   2   3
ENDBRANCH   1   2
BRANCH   1  11
ATOM     11  C   UNL     1     -32.688  20.120   6.610  1.00  0.00     0.000 C 
BRANCH  11  12
ATOM     12  C   UNL     1     -32.943  20.568   8.051  1.00  0.00    -0.000 C 
BRANCH  12  13
ATOM     13  C   UNL     1     -34.388  20.294   8.470  1.00  0.00    -0.000 C 
BRANCH  13  14
ATOM     14  C   UNL     1     -35.145  21.549   8.915  1.00  0.00    -0.000 C 
BRANCH  14  15
ATOM     15  C   UNL     1     -34.362  22.865   8.846  1.00  0.00    -0.000 C 
BRANCH  15  16
ATOM     16  C   UNL     1     -34.701  23.715   7.617  1.00  0.00    -0.000 C 
BRANCH  16  17
ATOM     17  C   UNL     1     -33.469  24.123   6.804  1.00  0.00    -0.003 C 
ATOM     18  C   UNL     1     -32.711  25.300   7.397  1.00  0.00     0.004 C 
ENDBRANCH  16  17
ENDBRANCH  15  16
ENDBRANCH  14  15
ENDBRANCH  13  14
ENDBRANCH  12  13
ENDBRANCH  11  12
ENDBRANCH   1  11
TORSDOF 14
ENDMDL
MODEL 18
REMARK VINA RESULT:    -5.736      2.881      5.123
REMARK INTER + INTRA:         -12.334
REMARK INTER:                  -9.991
REMARK INTRA:                  -2.343
REMARK UNBOUND:                -1.904
REMARK SMILES CCCCCCCCCCCCCCCC(=O)[O-]
REMARK SMILES IDX 9 1 10 2 11 3 12 4 13 5 14 6 15 7 16 8 17 9 18 10 8 11 7 12
REMARK SMILES IDX 6 13 5 14 4 15 3 16 2 17 1 18
REMARK H PARENT
REMARK INDEX MAP 4 1 6 2 8 3 10 4 12 5 14 6 16 7 18 8 2 9 1 10 3 11 5 12 7 13
REMARK INDEX MAP 9 14 11 15 13 16 15 17 17 18
ROOT
ATOM      1  C   UNL     1     -31.951  22.170   6.478  1.00  0.00     0.000 C 
ENDROOT
BRANCH   1   2
ATOM      2  C   UNL     1     -33.418  22.049   6.052  1.00  0.00     0.000 C 
BRANCH   2   3
ATOM      3  C   UNL     1     -33.722  20.980   4.995  1.00  0.00     0.000 C 
BRANCH   3   4
ATOM      4  C   UNL     1     -35.218  20.778   4.742  1.00  0.00     0.000 C 
BRANCH   4   5
ATOM      5  C   UNL     1     -36.064  21.549   5.756  1.00  0.00     0.000 C 
BRANCH   5   6
ATOM      6  C   UNL     1     -36.858  20.648   6.710  1.00  0.00     0.006 C 
BRANCH   6   7
ATOM      7  C   UNL     1     -38.149  21.269   7.241  1.00  0.00     0.053 C 
BRANCH   7   8
ATOM      8  C   UNL     1     -39.410  20.603   6.747  1.00  0.00     0.041 C 
ATOM      9  O   UNL     1     -39.571  20.214   5.598  1.00  0.00    -0.550 OA
ATOM     10  O   UNL     1     -40.365  20.508   7.704  1.00  0.00    -0.550 OA
ENDBRANCH   7   8
ENDBRANCH   6   7
ENDBRANCH   5   6
ENDBRANCH   4   5
ENDBRANCH   3   4
ENDBRANCH   2   3
ENDBRANCH   1   2
BRANCH   1  11
ATOM     11  C   UNL     1     -31.763  22.364   7.984  1.00  0.00     0.000 C 
BRANCH  11  12
ATOM     12  C   UNL     1     -32.751  23.397   8.533  1.00  0.00    -0.000 C 
BRANCH  12  13
ATOM     13  C   UNL     1     -33.466  22.873   9.779  1.00  0.00    -0.000 C 
BRANCH  13  14
ATOM     14  C   UNL     1     -34.674  21.987   9.463  1.00  0.00    -0.000 C 
BRANCH  14  15
ATOM     15  C   UNL     1     -34.886  20.783  10.389  1.00  0.00    -0.000 C 
BRANCH  15  16
ATOM     16  C   UNL     1     -34.058  19.556   9.995  1.00  0.00    -0.000 C 
BRANCH  16  17
ATOM     17  C   UNL     1     -34.096  19.257   8.494  1.00  0.00    -0.003 C 
ATOM     18  C   UNL     1     -32.766  18.775   7.935  1.00  0.00     0.004 C 
ENDBRANCH  16  17
ENDBRANCH  15  16
ENDBRANCH  14  15
ENDBRANCH  13  14
ENDBRANCH  12  13
ENDBRANCH  11  12
ENDBRANCH   1  11
TORSDOF 14
ENDMDL
MODEL 19
REMARK VINA RESULT:    -5.681      2.780      4.781
REMARK INTER + INTRA:         -12.235
REMARK INTER:                 -10.077
REMARK INTRA:                  -2.158
REMARK UNBOUND:                -1.904
REMARK SMILES CCCCCCCCCCCCCCCC(=O)[O-]
REMARK SMILES IDX 9 1 10 2 11 3 12 4 13 5 14 6 15 7 16 8 17 9 18 10 8 11 7 12
REMARK SMILES IDX 6 13 5 14 4 15 3 16 2 17 1 18
REMARK H PARENT
REMARK INDEX MAP 4 1 6 2 8 3 10 4 12 5 14 6 16 7 18 8 2 9 1 10 3 11 5 12 7 13
REMARK INDEX MAP 9 14 11 15 13 16 15 17 17 18
ROOT
ATOM      1  C   UNL     1     -33.953  19.891   9.546  1.00  0.00     0.000 C 
ENDROOT
BRANCH   1   2
ATOM      2  C   UNL     1     -35.125  20.876   9.600  1.00  0.00     0.000 C 
BRANCH   2   3
ATOM      3  C   UNL     1     -34.810  22.315   9.174  1.00  0.00     0.000 C 
BRANCH   3   4
ATOM      4  C   UNL     1     -35.817  22.892   8.176  1.00  0.00     0.000 C 
BRANCH   4   5
ATOM      5  C   UNL     1     -35.655  22.262   6.792  1.00  0.00     0.000 C 
BRANCH   5   6
ATOM      6  C   UNL     1     -36.902  21.515   6.303  1.00  0.00     0.006 C 
BRANCH   6   7
ATOM      7  C   UNL     1     -37.943  21.241   7.388  1.00  0.00     0.053 C 
BRANCH   7   8
ATOM      8  C   UNL     1     -39.373  21.338   6.918  1.00  0.00     0.041 C 
ATOM      9  O   UNL     1     -40.040  22.363   6.966  1.00  0.00    -0.550 OA
ATOM     10  O   UNL     1     -39.860  20.156   6.466  1.00  0.00    -0.550 OA
ENDBRANCH   7   8
ENDBRANCH   6   7
ENDBRANCH   5   6
ENDBRANCH   4   5
ENDBRANCH   3   4
ENDBRANCH   2   3
ENDBRANCH   1   2
BRANCH   1  11
ATOM     11  C   UNL     1     -33.754  19.249   8.171  1.00  0.00     0.000 C 
BRANCH  11  12
ATOM     12  C   UNL     1     -32.416  19.670   7.558  1.00  0.00    -0.000 C 
BRANCH  12  13
ATOM     13  C   UNL     1     -32.550  19.919   6.054  1.00  0.00    -0.000 C 
BRANCH  13  14
ATOM     14  C   UNL     1     -32.511  21.402   5.674  1.00  0.00    -0.000 C 
BRANCH  14  15
ATOM     15  C   UNL     1     -32.018  22.362   6.763  1.00  0.00    -0.000 C 
BRANCH  15  16
ATOM     16  C   UNL     1     -32.121  23.839   6.368  1.00  0.00    -0.000 C 
BRANCH  16  17
ATOM     17  C   UNL     1     -32.602  24.738   7.511  1.00  0.00    -0.003 C 
ATOM     18  C   UNL     1     -31.782  24.598   8.783  1.00  0.00     0.004 C 
ENDBRANCH  16  17
ENDBRANCH  15  16
ENDBRANCH  14  15
ENDBRANCH  13  14
ENDBRANCH  12  13
ENDBRANCH  11  12
ENDBRANCH   1  11
TORSDOF 14
ENDMDL
MODEL 20
REMARK VINA RESULT:    -5.663      2.997      4.909
REMARK INTER + INTRA:         -12.202
REMARK INTER:                  -9.737
REMARK INTRA:                  -2.466
REMARK UNBOUND:                -1.904
REMARK SMILES CCCCCCCCCCCCCCCC(=O)[O-]
REMARK SMILES IDX 9 1 10 2 11 3 12 4 13 5 14 6 15 7 16 8 17 9 18 10 8 11 7 12
REMARK SMILES IDX 6 13 5 14 4 15 3 16 2 17 1 18
REMARK H PARENT
REMARK INDEX MAP 4 1 6 2 8 3 10 4 12 5 14 6 16 7 18 8 2 9 1 10 3 11 5 12 7 13
REMARK INDEX MAP 9 14 11 15 13 16 15 17 17 18
ROOT
ATOM      1  C   UNL     1     -34.751  21.600   9.516  1.00  0.00     0.000 C 
ENDROOT
BRANCH   1   2
ATOM      2  C   UNL     1     -35.531  21.162   8.272  1.00  0.00     0.000 C 
BRANCH   2   3
ATOM      3  C   UNL     1     -35.998  22.289   7.344  1.00  0.00     0.000 C 
BRANCH   3   4
ATOM      4  C   UNL     1     -35.770  21.994   5.859  1.00  0.00     0.000 C 
BRANCH   4   5
ATOM      5  C   UNL     1     -36.263  20.595   5.487  1.00  0.00     0.000 C 
BRANCH   5   6
ATOM      6  C   UNL     1     -37.786  20.497   5.333  1.00  0.00     0.006 C 
BRANCH   6   7
ATOM      7  C   UNL     1     -38.494  19.775   6.479  1.00  0.00     0.053 C 
BRANCH   7   8
ATOM      8  C   UNL     1     -39.662  20.529   7.064  1.00  0.00     0.041 C 
ATOM      9  O   UNL     1     -40.621  19.992   7.603  1.00  0.00    -0.550 OA
ATOM     10  O   UNL     1     -39.558  21.871   6.900  1.00  0.00    -0.550 OA
ENDBRANCH   7   8
ENDBRANCH   6   7
ENDBRANCH   5   6
ENDBRANCH   4   5
ENDBRANCH   3   4
ENDBRANCH   2   3
ENDBRANCH   1   2
BRANCH   1  11
ATOM     11  C   UNL     1     -34.276  23.053   9.462  1.00  0.00     0.000 C 
BRANCH  11  12
ATOM     12  C   UNL     1     -32.775  23.130   9.167  1.00  0.00    -0.000 C 
BRANCH  12  13
ATOM     13  C   UNL     1     -32.496  23.999   7.940  1.00  0.00    -0.000 C 
BRANCH  13  14
ATOM     14  C   UNL     1     -32.237  23.191   6.665  1.00  0.00    -0.000 C 
BRANCH  14  15
ATOM     15  C   UNL     1     -31.801  21.735   6.869  1.00  0.00    -0.000 C 
BRANCH  15  16
ATOM     16  C   UNL     1     -32.510  20.748   5.936  1.00  0.00    -0.000 C 
BRANCH  16  17
ATOM     17  C   UNL     1     -32.455  19.300   6.432  1.00  0.00    -0.003 C 
ATOM     18  C   UNL     1     -32.371  19.178   7.945  1.00  0.00     0.004 C 
ENDBRANCH  16  17
ENDBRANCH  15  16
ENDBRANCH  14  15
ENDBRANCH  13  14
ENDBRANCH  12  13
ENDBRANCH  11  12
ENDBRANCH   1  11
TORSDOF 14
ENDMDL
