MODEL 1
REMARK VINA RESULT:    -5.981      0.000      0.000
REMARK INTER + INTRA:         -14.264
REMARK INTER:                 -11.575
REMARK INTRA:                  -2.689
REMARK UNBOUND:                -2.689
REMARK SMILES CCCCCCCCCCCCCCCCCC(=O)[O-]
REMARK SMILES IDX 10 1 11 2 12 3 13 4 14 5 15 6 16 7 17 8 18 9 19 10 20 11
REMARK SMILES IDX 9 12 8 13 7 14 6 15 5 16 4 17 3 18 2 19 1 20
REMARK H PARENT
REMARK INDEX MAP 4 1 6 2 8 3 10 4 12 5 14 6 16 7 18 8 20 9 2 10 1 11 3 12 5 13
REMARK INDEX MAP 7 14 9 15 11 16 13 17 15 18 17 19 19 20
ROOT
ATOM      1  C   UNL     1     -32.147  19.709   7.470  1.00  0.00     0.000 C 
ENDROOT
BRANCH   1   2
ATOM      2  C   UNL     1     -32.305  20.672   6.286  1.00  0.00     0.000 C 
BRANCH   2   3
ATOM      3  C   UNL     1     -33.258  20.137   5.212  1.00  0.00     0.000 C 
BRANCH   3   4
ATOM      4  C   UNL     1     -34.476  21.036   4.974  1.00  0.00     0.000 C 
BRANCH   4   5
ATOM      5  C   UNL     1     -34.805  22.031   6.092  1.00  0.00     0.000 C 
BRANCH   5   6
ATOM      6  C   UNL     1     -36.223  21.946   6.665  1.00  0.00     0.000 C 
BRANCH   6   7
ATOM      7  C   UNL     1     -37.017  20.736   6.165  1.00  0.00     0.006 C 
BRANCH   7   8
ATOM      8  C   UNL     1     -37.996  20.214   7.214  1.00  0.00     0.053 C 
BRANCH   8   9
ATOM      9  C   UNL     1     -39.432  20.451   6.836  1.00  0.00     0.041 C 
ATOM     10  O   UNL     1     -40.365  20.595   7.608  1.00  0.00    -0.550 OA
ATOM     11  O   UNL     1     -39.625  20.520   5.506  1.00  0.00    -0.550 OA
ENDBRANCH   8   9
ENDBRANCH   7   8
ENDBRANCH   6   7
ENDBRANCH   5   6
ENDBRANCH   4   5
ENDBRANCH   3   4
ENDBRANCH   2   3
ENDBRANCH   1   2
BRANCH   1  12
ATOM     12  C   UNL     1     -33.308  18.726   7.667  1.00  0.00     0.000 C 
BRANCH  12  13
ATOM     13  C   UNL     1     -34.442  19.257   8.541  1.00  0.00    -0.000 C 
BRANCH  13  14
ATOM     14  C   UNL     1     -34.003  19.604   9.966  1.00  0.00    -0.000 C 
BRANCH  14  15
ATOM     15  C   UNL     1     -34.749  20.767  10.629  1.00  0.00    -0.000 C 
BRANCH  15  16
ATOM     16  C   UNL     1     -34.721  22.095   9.864  1.00  0.00    -0.000 C 
BRANCH  16  17
ATOM     17  C   UNL     1     -33.507  22.965  10.200  1.00  0.00    -0.000 C 
BRANCH  17  18
ATOM     18  C   UNL     1     -32.576  23.105   8.993  1.00  0.00    -0.000 C 
BRANCH  18  19
ATOM     19  C   UNL     1     -32.160  24.551   8.714  1.00  0.00    -0.003 C 
ATOM     20  C   UNL     1     -32.587  25.052   7.342  1.00  0.00     0.004 C 
ENDBRANCH  18  19
ENDBRANCH  17  18
ENDBRANCH  16  17
ENDBRANCH  15  16
ENDBRANCH  14  15
ENDBRANCH  13  14
ENDBRANCH  12  13
ENDBRANCH   1  12
TORSDOF 16
ENDMDL
MODEL 2
REMARK VINA RESULT:    -5.938      2.776      5.938
REMARK INTER + INTRA:         -14.182
REMARK INTER:                 -11.940
REMARK INTRA:                  -2.242
REMARK UNBOUND:                -2.689
REMARK SMILES CCCCCCCCCCCCCCCCCC(=O)[O-]
REMARK SMILES IDX 10 1 11 2 12 3 13 4 14 5 15 6 16 7 17 8 18 9 19 10 20 11
REMARK SMILES IDX 9 12 8 13 7 14 6 15 5 16 4 17 3 18 2 19 1 20
REMARK H PARENT
REMARK INDEX MAP 4 1 6 2 8 3 10 4 12 5 14 6 16 7 18 8 20 9 2 10 1 11 3 12 5 13
REMARK INDEX MAP 7 14 9 15 11 16 13 17 15 18 17 19 19 20
ROOT
ATOM      1  C   UNL     1     -32.102  24.448   8.861  1.00  0.00     0.000 C 
ENDROOT
BRANCH   1   2
ATOM      2  C   UNL     1     -32.547  23.018   9.195  1.00  0.00     0.000 C 
BRANCH   2   3
ATOM      3  C   UNL     1     -33.569  22.968  10.335  1.00  0.00     0.000 C 
BRANCH   3   4
ATOM      4  C   UNL     1     -34.724  21.995  10.076  1.00  0.00     0.000 C 
BRANCH   4   5
ATOM      5  C   UNL     1     -34.636  20.642  10.789  1.00  0.00     0.000 C 
BRANCH   5   6
ATOM      6  C   UNL     1     -33.954  19.516  10.004  1.00  0.00     0.000 C 
BRANCH   6   7
ATOM      7  C   UNL     1     -34.156  19.613   8.489  1.00  0.00     0.006 C 
BRANCH   7   8
ATOM      8  C   UNL     1     -32.842  19.837   7.744  1.00  0.00     0.053 C 
BRANCH   8   9
ATOM      9  C   UNL     1     -32.276  18.567   7.172  1.00  0.00     0.041 C 
ATOM     10  O   UNL     1     -32.571  18.068   6.100  1.00  0.00    -0.550 OA
ATOM     11  O   UNL     1     -31.348  17.997   7.962  1.00  0.00    -0.550 OA
ENDBRANCH   8   9
ENDBRANCH   7   8
ENDBRANCH   6   7
ENDBRANCH   5   6
ENDBRANCH   4   5
ENDBRANCH   3   4
ENDBRANCH   2   3
ENDBRANCH   1   2
BRANCH   1  12
ATOM     12  C   UNL     1     -32.559  24.968   7.492  1.00  0.00     0.000 C 
BRANCH  12  13
ATOM     13  C   UNL     1     -33.432  23.991   6.707  1.00  0.00    -0.000 C 
BRANCH  13  14
ATOM     14  C   UNL     1     -34.933  24.194   6.936  1.00  0.00    -0.000 C 
BRANCH  14  15
ATOM     15  C   UNL     1     -35.756  22.916   7.128  1.00  0.00    -0.000 C 
BRANCH  15  16
ATOM     16  C   UNL     1     -35.701  21.910   5.974  1.00  0.00    -0.000 C 
BRANCH  16  17
ATOM     17  C   UNL     1     -36.786  20.833   6.055  1.00  0.00    -0.000 C 
BRANCH  17  18
ATOM     18  C   UNL     1     -37.407  20.777   7.453  1.00  0.00    -0.000 C 
BRANCH  18  19
ATOM     19  C   UNL     1     -38.937  20.826   7.438  1.00  0.00    -0.003 C 
ATOM     20  C   UNL     1     -39.498  22.234   7.312  1.00  0.00     0.004 C 
ENDBRANCH  18  19
ENDBRANCH  17  18
ENDBRANCH  16  17
ENDBRANCH  15  16
ENDBRANCH  14  15
ENDBRANCH  13  14
ENDBRANCH  12  13
ENDBRANCH   1  12
TORSDOF 16
ENDMDL
MODEL 3
REMARK VINA RESULT:    -5.900      1.164      3.203
REMARK INTER + INTRA:         -14.108
REMARK INTER:                 -11.062
REMARK INTRA:                  -3.047
REMARK UNBOUND:                -2.689
REMARK SMILES CCCCCCCCCCCCCCCCCC(=O)[O-]
REMARK SMILES IDX 10 1 11 2 12 3 13 4 14 5 15 6 16 7 17 8 18 9 19 10 20 11
REMARK SMILES IDX 9 12 8 13 7 14 6 15 5 16 4 17 3 18 2 19 1 20
REMARK H PARENT
REMARK INDEX MAP 4 1 6 2 8 3 10 4 12 5 14 6 16 7 18 8 20 9 2 10 1 11 3 12 5 13
REMARK INDEX MAP 7 14 9 15 11 16 13 17 15 18 17 19 19 20
ROOT
ATOM      1  C   UNL     1     -31.916  21.673   6.619  1.00  0.00     0.000 C 
ENDROOT
BRANCH   1   2
ATOM      2  C   UNL     1     -32.631  22.702   7.505  1.00  0.00     0.000 C 
BRANCH   2   3
ATOM      3  C   UNL     1     -33.716  23.479   6.753  1.00  0.00     0.000 C 
BRANCH   3   4
ATOM      4  C   UNL     1     -34.904  23.877   7.634  1.00  0.00     0.000 C 
BRANCH   4   5
ATOM      5  C   UNL     1     -36.154  22.998   7.513  1.00  0.00     0.000 C 
BRANCH   5   6
ATOM      6  C   UNL     1     -36.194  22.056   6.305  1.00  0.00     0.000 C 
BRANCH   6   7
ATOM      7  C   UNL     1     -36.833  20.697   6.606  1.00  0.00     0.006 C 
BRANCH   7   8
ATOM      8  C   UNL     1     -38.037  20.819   7.537  1.00  0.00     0.053 C 
BRANCH   8   9
ATOM      9  C   UNL     1     -39.348  20.746   6.803  1.00  0.00     0.041 C 
ATOM     10  O   UNL     1     -39.521  20.974   5.619  1.00  0.00    -0.550 OA
ATOM     11  O   UNL     1     -40.373  20.365   7.587  1.00  0.00    -0.550 OA
ENDBRANCH   8   9
ENDBRANCH   7   8
ENDBRANCH   6   7
ENDBRANCH   5   6
ENDBRANCH   4   5
ENDBRANCH   3   4
ENDBRANCH   2   3
ENDBRANCH   1   2
BRANCH   1  12
ATOM     12  C   UNL     1     -32.640  21.328   5.312  1.00  0.00     0.000 C 
BRANCH  12  13
ATOM     13  C   UNL     1     -33.283  19.942   5.294  1.00  0.00    -0.000 C 
BRANCH  13  14
ATOM     14  C   UNL     1     -32.384  18.846   5.874  1.00  0.00    -0.000 C 
BRANCH  14  15
ATOM     15  C   UNL     1     -32.876  18.201   7.174  1.00  0.00    -0.000 C 
BRANCH  15  16
ATOM     16  C   UNL     1     -34.061  18.894   7.854  1.00  0.00    -0.000 C 
BRANCH  16  17
ATOM     17  C   UNL     1     -33.728  19.448   9.241  1.00  0.00    -0.000 C 
BRANCH  17  18
ATOM     18  C   UNL     1     -34.722  20.536   9.656  1.00  0.00    -0.000 C 
BRANCH  18  19
ATOM     19  C   UNL     1     -34.420  21.140  11.029  1.00  0.00    -0.003 C 
ATOM     20  C   UNL     1     -34.098  22.626  10.982  1.00  0.00     0.004 C 
ENDBRANCH  18  19
ENDBRANCH  17  18
ENDBRANCH  16  17
ENDBRANCH  15  16
ENDBRANCH  14  15
ENDBRANCH  13  14
ENDBRANCH  12  13
ENDBRANCH   1  12
TORSDOF 16
ENDMDL
MODEL 4
REMARK VINA RESULT:    -5.897      1.223      1.554
REMARK INTER + INTRA:         -14.102
REMARK INTER:                 -11.499
REMARK INTRA:                  -2.603
REMARK UNBOUND:                -2.689
REMARK SMILES CCCCCCCCCCCCCCCCCC(=O)[O-]
REMARK SMILES IDX 10 1 11 2 12 3 13 4 14 5 15 6 16 7 17 8 18 9 19 10 20 11
REMARK SMILES IDX 9 12 8 13 7 14 6 15 5 16 4 17 3 18 2 19 1 20
REMARK H PARENT
REMARK INDEX MAP 4 1 6 2 8 3 10 4 12 5 14 6 16 7 18 8 20 9 2 10 1 11 3 12 5 13
REMARK INDEX MAP 7 14 9 15 11 16 13 17 15 18 17 19 19 20
ROOT
ATOM      1  C   UNL     1     -32.887  18.807   6.072  1.00  0.00     0.000 C 
ENDROOT
BRANCH   1   2
ATOM      2  C   UNL     1     -32.268  20.161   5.704  1.00  0.00     0.000 C 
BRANCH   2   3
ATOM      3  C   UNL     1     -33.320  21.213   5.340  1.00  0.00     0.000 C 
BRANCH   3   4
ATOM      4  C   UNL     1     -34.619  20.613   4.792  1.00  0.00     0.000 C 
BRANCH   4   5
ATOM      5  C   UNL     1     -35.905  21.377   5.124  1.00  0.00     0.000 C 
BRANCH   5   6
ATOM      6  C   UNL     1     -37.171  20.526   5.264  1.00  0.00     0.000 C 
BRANCH   6   7
ATOM      7  C   UNL     1     -37.648  20.368   6.710  1.00  0.00     0.006 C 
BRANCH   7   8
ATOM      8  C   UNL     1     -38.387  21.607   7.212  1.00  0.00     0.053 C 
BRANCH   8   9
ATOM      9  C   UNL     1     -39.858  21.364   7.409  1.00  0.00     0.041 C 
ATOM     10  O   UNL     1     -40.386  20.287   7.629  1.00  0.00    -0.550 OA
ATOM     11  O   UNL     1     -40.594  22.489   7.346  1.00  0.00    -0.550 OA
ENDBRANCH   8   9
ENDBRANCH   7   8
ENDBRANCH   6   7
ENDBRANCH   5   6
ENDBRANCH   4   5
ENDBRANCH   3   4
ENDBRANCH   2   3
ENDBRANCH   1   2
BRANCH   1  12
ATOM     12  C   UNL     1     -33.009  18.536   7.577  1.00  0.00     0.000 C 
BRANCH  12  13
ATOM     13  C   UNL     1     -34.291  19.070   8.212  1.00  0.00    -0.000 C 
BRANCH  13  14
ATOM     14  C   UNL     1     -34.050  20.208   9.208  1.00  0.00    -0.000 C 
BRANCH  14  15
ATOM     15  C   UNL     1     -35.197  21.211   9.365  1.00  0.00    -0.000 C 
BRANCH  15  16
ATOM     16  C   UNL     1     -34.805  22.690   9.279  1.00  0.00    -0.000 C 
BRANCH  16  17
ATOM     17  C   UNL     1     -35.559  23.457   8.191  1.00  0.00    -0.000 C 
BRANCH  17  18
ATOM     18  C   UNL     1     -34.590  24.161   7.238  1.00  0.00    -0.000 C 
BRANCH  18  19
ATOM     19  C   UNL     1     -33.186  24.336   7.821  1.00  0.00    -0.003 C 
ATOM     20  C   UNL     1     -32.211  25.013   6.869  1.00  0.00     0.004 C 
ENDBRANCH  18  19
ENDBRANCH  17  18
ENDBRANCH  16  17
ENDBRANCH  15  16
ENDBRANCH  14  15
ENDBRANCH  13  14
ENDBRANCH  12  13
ENDBRANCH   1  12
TORSDOF 16
ENDMDL
MODEL 5
REMARK VINA RESULT:    -5.876      2.513      5.384
REMARK INTER + INTRA:         -14.062
REMARK INTER:                 -11.342
REMARK INTRA:                  -2.720
REMARK UNBOUND:                -2.689
REMARK SMILES CCCCCCCCCCCCCCCCCC(=O)[O-]
REMARK SMILES IDX 10 1 11 2 12 3 13 4 14 5 15 6 16 7 17 8 18 9 19 10 20 11
REMARK SMILES IDX 9 12 8 13 7 14 6 15 5 16 4 17 3 18 2 19 1 20
REMARK H PARENT
REMARK INDEX MAP 4 1 6 2 8 3 10 4 12 5 14 6 16 7 18 8 20 9 2 10 1 11 3 12 5 13
REMARK INDEX MAP 7 14 9 15 11 16 13 17 15 18 17 19 19 20
ROOT
ATOM      1  C   UNL     1     -31.765  22.708   7.035  1.00  0.00     0.000 C 
ENDROOT
BRANCH   1   2
ATOM      2  C   UNL     1     -31.843  23.697   8.205  1.00  0.00     0.000 C 
BRANCH   2   3
ATOM      3  C   UNL     1     -32.957  24.735   8.030  1.00  0.00     0.000 C 
BRANCH   3   4
ATOM      4  C   UNL     1     -33.808  24.511   6.776  1.00  0.00     0.000 C 
BRANCH   4   5
ATOM      5  C   UNL     1     -35.102  23.716   6.976  1.00  0.00     0.000 C 
BRANCH   5   6
ATOM      6  C   UNL     1     -35.465  23.382   8.426  1.00  0.00     0.000 C 
BRANCH   6   7
ATOM      7  C   UNL     1     -35.242  21.912   8.792  1.00  0.00     0.006 C 
BRANCH   7   8
ATOM      8  C   UNL     1     -34.551  21.752  10.145  1.00  0.00     0.053 C 
BRANCH   8   9
ATOM      9  C   UNL     1     -34.468  20.317  10.588  1.00  0.00     0.041 C 
ATOM     10  O   UNL     1     -34.135  19.370   9.896  1.00  0.00    -0.550 OA
ATOM     11  O   UNL     1     -34.783  20.144  11.884  1.00  0.00    -0.550 OA
ENDBRANCH   8   9
ENDBRANCH   7   8
ENDBRANCH   6   7
ENDBRANCH   5   6
ENDBRANCH   4   5
ENDBRANCH   3   4
ENDBRANCH   2   3
ENDBRANCH   1   2
BRANCH   1  12
ATOM     12  C   UNL     1     -31.923  21.232   7.420  1.00  0.00     0.000 C 
BRANCH  12  13
ATOM     13  C   UNL     1     -32.805  20.424   6.469  1.00  0.00    -0.000 C 
BRANCH  13  14
ATOM     14  C   UNL     1     -32.815  20.967   5.037  1.00  0.00    -0.000 C 
BRANCH  14  15
ATOM     15  C   UNL     1     -34.113  20.751   4.252  1.00  0.00    -0.000 C 
BRANCH  15  16
ATOM     16  C   UNL     1     -35.396  20.703   5.089  1.00  0.00    -0.000 C 
BRANCH  16  17
ATOM     17  C   UNL     1     -36.664  20.543   4.248  1.00  0.00    -0.000 C 
BRANCH  17  18
ATOM     18  C   UNL     1     -37.897  20.358   5.136  1.00  0.00    -0.000 C 
BRANCH  18  19
ATOM     19  C   UNL     1     -37.689  20.850   6.571  1.00  0.00    -0.003 C 
ATOM     20  C   UNL     1     -38.937  20.746   7.435  1.00  0.00     0.004 C 
ENDBRANCH  18  19
ENDBRANCH  17  18
ENDBRANCH  16  17
ENDBRANCH  15  16
ENDBRANCH  14  15
ENDBRANCH  13  14
ENDBRANCH  12  13
ENDBRANCH   1  12
TORSDOF 16
ENDMDL
MODEL 6
REMARK VINA RESULT:    -5.868      2.475      5.772
REMARK INTER + INTRA:         -14.047
REMARK INTER:                 -11.872
REMARK INTRA:                  -2.174
REMARK UNBOUND:                -2.689
REMARK SMILES CCCCCCCCCCCCCCCCCC(=O)[O-]
REMARK SMILES IDX 10 1 11 2 12 3 13 4 14 5 15 6 16 7 17 8 18 9 19 10 20 11
REMARK SMILES IDX 9 12 8 13 7 14 6 15 5 16 4 17 3 18 2 19 1 20
REMARK H PARENT
REMARK INDEX MAP 4 1 6 2 8 3 10 4 12 5 14 6 16 7 18 8 20 9 2 10 1 11 3 12 5 13
REMARK INDEX MAP 7 14 9 15 11 16 13 17 15 18 17 19 19 20
ROOT
ATOM      1  C   UNL     1     -34.097  19.414   8.665  1.00  0.00     0.000 C 
ENDROOT
BRANCH   1   2
ATOM      2  C   UNL     1     -34.010  19.467  10.196  1.00  0.00     0.000 C 
BRANCH   2   3
ATOM      3  C   UNL     1     -34.683  20.711  10.784  1.00  0.00     0.000 C 
BRANCH   3   4
ATOM      4  C   UNL     1     -34.791  21.873   9.792  1.00  0.00     0.000 C 
BRANCH   4   5
ATOM      5  C   UNL     1     -33.809  23.031  10.004  1.00  0.00     0.000 C 
BRANCH   5   6
ATOM      6  C   UNL     1     -32.535  22.992   9.154  1.00  0.00     0.000 C 
BRANCH   6   7
ATOM      7  C   UNL     1     -31.907  24.369   8.926  1.00  0.00     0.006 C 
BRANCH   7   8
ATOM      8  C   UNL     1     -32.725  25.225   7.962  1.00  0.00     0.053 C 
BRANCH   8   9
ATOM      9  C   UNL     1     -32.957  24.548   6.639  1.00  0.00     0.041 C 
ATOM     10  O   UNL     1     -32.108  24.013   5.947  1.00  0.00    -0.550 OA
ATOM     11  O   UNL     1     -34.248  24.553   6.261  1.00  0.00    -0.550 OA
ENDBRANCH   8   9
ENDBRANCH   7   8
ENDBRANCH   6   7
ENDBRANCH   5   6
ENDBRANCH   4   5
ENDBRANCH   3   4
ENDBRANCH   2   3
ENDBRANCH   1   2
BRANCH   1  12
ATOM     12  C   UNL     1     -32.805  18.987   7.956  1.00  0.00     0.000 C 
BRANCH  12  13
ATOM     13  C   UNL     1     -32.268  20.010   6.956  1.00  0.00    -0.000 C 
BRANCH  13  14
ATOM     14  C   UNL     1     -32.963  19.954   5.593  1.00  0.00    -0.000 C 
BRANCH  14  15
ATOM     15  C   UNL     1     -33.905  21.121   5.276  1.00  0.00    -0.000 C 
BRANCH  15  16
ATOM     16  C   UNL     1     -35.402  20.814   5.383  1.00  0.00    -0.000 C 
BRANCH  16  17
ATOM     17  C   UNL     1     -36.131  21.693   6.403  1.00  0.00    -0.000 C 
BRANCH  17  18
ATOM     18  C   UNL     1     -37.145  20.878   7.210  1.00  0.00    -0.000 C 
BRANCH  18  19
ATOM     19  C   UNL     1     -38.593  21.321   6.988  1.00  0.00    -0.003 C 
ATOM     20  C   UNL     1     -39.618  20.373   7.593  1.00  0.00     0.004 C 
ENDBRANCH  18  19
ENDBRANCH  17  18
ENDBRANCH  16  17
ENDBRANCH  15  16
ENDBRANCH  14  15
ENDBRANCH  13  14
ENDBRANCH  12  13
ENDBRANCH   1  12
TORSDOF 16
ENDMDL
MODEL 7
REMARK VINA RESULT:    -5.853      2.366      5.592
REMARK INTER + INTRA:         -14.016
REMARK INTER:                 -11.742
REMARK INTRA:                  -2.274
REMARK UNBOUND:                -2.689
REMARK SMILES CCCCCCCCCCCCCCCCCC(=O)[O-]
REMARK SMILES IDX 10 1 11 2 12 3 13 4 14 5 15 6 16 7 17 8 18 9 19 10 20 11
REMARK SMILES IDX 9 12 8 13 7 14 6 15 5 16 4 17 3 18 2 19 1 20
REMARK H PARENT
REMARK INDEX MAP 4 1 6 2 8 3 10 4 12 5 14 6 16 7 18 8 20 9 2 10 1 11 3 12 5 13
REMARK INDEX MAP 7 14 9 15 11 16 13 17 15 18 17 19 19 20
ROOT
ATOM      1  C   UNL     1     -33.867  22.994  10.241  1.00  0.00     0.000 C 
ENDROOT
BRANCH   1   2
ATOM      2  C   UNL     1     -34.190  21.677  10.958  1.00  0.00     0.000 C 
BRANCH   2   3
ATOM      3  C   UNL     1     -34.964  20.696  10.073  1.00  0.00     0.000 C 
BRANCH   3   4
ATOM      4  C   UNL     1     -34.115  19.520   9.577  1.00  0.00     0.000 C 
BRANCH   4   5
ATOM      5  C   UNL     1     -34.019  19.355   8.057  1.00  0.00     0.000 C 
BRANCH   5   6
ATOM      6  C   UNL     1     -32.821  18.546   7.547  1.00  0.00     0.000 C 
BRANCH   6   7
ATOM      7  C   UNL     1     -32.254  19.059   6.220  1.00  0.00     0.006 C 
BRANCH   7   8
ATOM      8  C   UNL     1     -32.792  20.441   5.858  1.00  0.00     0.053 C 
BRANCH   8   9
ATOM      9  C   UNL     1     -33.206  20.542   4.415  1.00  0.00     0.041 C 
ATOM     10  O   UNL     1     -34.074  21.271   3.966  1.00  0.00    -0.550 OA
ATOM     11  O   UNL     1     -32.494  19.741   3.603  1.00  0.00    -0.550 OA
ENDBRANCH   8   9
ENDBRANCH   7   8
ENDBRANCH   6   7
ENDBRANCH   5   6
ENDBRANCH   4   5
ENDBRANCH   3   4
ENDBRANCH   2   3
ENDBRANCH   1   2
BRANCH   1  12
ATOM     12  C   UNL     1     -32.983  22.856   8.995  1.00  0.00     0.000 C 
BRANCH  12  13
ATOM     13  C   UNL     1     -33.162  23.973   7.969  1.00  0.00    -0.000 C 
BRANCH  13  14
ATOM     14  C   UNL     1     -34.400  23.798   7.085  1.00  0.00    -0.000 C 
BRANCH  14  15
ATOM     15  C   UNL     1     -35.745  24.091   7.758  1.00  0.00    -0.000 C 
BRANCH  15  16
ATOM     16  C   UNL     1     -36.806  22.992   7.631  1.00  0.00    -0.000 C 
BRANCH  16  17
ATOM     17  C   UNL     1     -36.367  21.823   6.745  1.00  0.00    -0.000 C 
BRANCH  17  18
ATOM     18  C   UNL     1     -37.213  20.576   7.015  1.00  0.00    -0.000 C 
BRANCH  18  19
ATOM     19  C   UNL     1     -38.671  20.727   6.575  1.00  0.00    -0.003 C 
ATOM     20  C   UNL     1     -39.664  20.651   7.726  1.00  0.00     0.004 C 
ENDBRANCH  18  19
ENDBRANCH  17  18
ENDBRANCH  16  17
ENDBRANCH  15  16
ENDBRANCH  14  15
ENDBRANCH  13  14
ENDBRANCH  12  13
ENDBRANCH   1  12
TORSDOF 16
ENDMDL
MODEL 8
REMARK VINA RESULT:    -5.834      2.876      4.937
REMARK INTER + INTRA:         -13.980
REMARK INTER:                 -11.140
REMARK INTRA:                  -2.840
REMARK UNBOUND:                -2.689
REMARK SMILES CCCCCCCCCCCCCCCCCC(=O)[O-]
REMARK SMILES IDX 10 1 11 2 12 3 13 4 14 5 15 6 16 7 17 8 18 9 19 10 20 11
REMARK SMILES IDX 9 12 8 13 7 14 6 15 5 16 4 17 3 18 2 19 1 20
REMARK H PARENT
REMARK INDEX MAP 4 1 6 2 8 3 10 4 12 5 14 6 16 7 18 8 20 9 2 10 1 11 3 12 5 13
REMARK INDEX MAP 7 14 9 15 11 16 13 17 15 18 17 19 19 20
ROOT
ATOM      1  C   UNL     1     -35.946  21.631   7.940  1.00  0.00     0.000 C 
ENDROOT
BRANCH   1   2
ATOM      2  C   UNL     1     -36.337  20.492   6.989  1.00  0.00     0.000 C 
BRANCH   2   3
ATOM      3  C   UNL     1     -36.927  21.000   5.670  1.00  0.00     0.000 C 
BRANCH   3   4
ATOM      4  C   UNL     1     -35.872  21.256   4.589  1.00  0.00     0.000 C 
BRANCH   4   5
ATOM      5  C   UNL     1     -34.595  20.414   4.682  1.00  0.00     0.000 C 
BRANCH   5   6
ATOM      6  C   UNL     1     -33.293  21.194   4.890  1.00  0.00     0.000 C 
BRANCH   6   7
ATOM      7  C   UNL     1     -32.486  20.730   6.106  1.00  0.00     0.006 C 
BRANCH   7   8
ATOM      8  C   UNL     1     -32.982  19.393   6.652  1.00  0.00     0.053 C 
BRANCH   8   9
ATOM      9  C   UNL     1     -32.451  19.095   8.027  1.00  0.00     0.041 C 
ATOM     10  O   UNL     1     -33.112  18.986   9.045  1.00  0.00    -0.550 OA
ATOM     11  O   UNL     1     -31.117  18.923   8.053  1.00  0.00    -0.550 OA
ENDBRANCH   8   9
ENDBRANCH   7   8
ENDBRANCH   6   7
ENDBRANCH   5   6
ENDBRANCH   4   5
ENDBRANCH   3   4
ENDBRANCH   2   3
ENDBRANCH   1   2
BRANCH   1  12
ATOM     12  C   UNL     1     -36.505  23.010   7.567  1.00  0.00     0.000 C 
BRANCH  12  13
ATOM     13  C   UNL     1     -35.507  24.156   7.718  1.00  0.00    -0.000 C 
BRANCH  13  14
ATOM     14  C   UNL     1     -34.436  24.180   6.624  1.00  0.00    -0.000 C 
BRANCH  14  15
ATOM     15  C   UNL     1     -33.148  24.936   6.968  1.00  0.00    -0.000 C 
BRANCH  15  16
ATOM     16  C   UNL     1     -32.057  24.111   7.658  1.00  0.00    -0.000 C 
BRANCH  16  17
ATOM     17  C   UNL     1     -32.235  24.015   9.175  1.00  0.00    -0.000 C 
BRANCH  17  18
ATOM     18  C   UNL     1     -32.817  22.659   9.579  1.00  0.00    -0.000 C 
BRANCH  18  19
ATOM     19  C   UNL     1     -33.729  22.732  10.806  1.00  0.00    -0.003 C 
ATOM     20  C   UNL     1     -34.421  21.416  11.128  1.00  0.00     0.004 C 
ENDBRANCH  18  19
ENDBRANCH  17  18
ENDBRANCH  16  17
ENDBRANCH  15  16
ENDBRANCH  14  15
ENDBRANCH  13  14
ENDBRANCH  12  13
ENDBRANCH   1  12
TORSDOF 16
ENDMDL
MODEL 9
REMARK VINA RESULT:    -5.829      1.171      4.104
REMARK INTER + INTRA:         -13.970
REMARK INTER:                 -11.355
REMARK INTRA:                  -2.615
REMARK UNBOUND:                -2.689
REMARK SMILES CCCCCCCCCCCCCCCCCC(=O)[O-]
REMARK SMILES IDX 10 1 11 2 12 3 13 4 14 5 15 6 16 7 17 8 18 9 19 10 20 11
REMARK SMILES IDX 9 12 8 13 7 14 6 15 5 16 4 17 3 18 2 19 1 20
REMARK H PARENT
REMARK INDEX MAP 4 1 6 2 8 3 10 4 12 5 14 6 16 7 18 8 20 9 2 10 1 11 3 12 5 13
REMARK INDEX MAP 7 14 9 15 11 16 13 17 15 18 17 19 19 20
ROOT
ATOM      1  C   UNL     1     -33.455  23.100   9.856  1.00  0.00     0.000 C 
ENDROOT
BRANCH   1   2
ATOM      2  C   UNL     1     -34.618  22.376   9.167  1.00  0.00     0.000 C 
BRANCH   2   3
ATOM      3  C   UNL     1     -35.592  23.339   8.481  1.00  0.00     0.000 C 
BRANCH   3   4
ATOM      4  C   UNL     1     -35.955  22.925   7.051  1.00  0.00     0.000 C 
BRANCH   4   5
ATOM      5  C   UNL     1     -35.879  21.425   6.746  1.00  0.00     0.000 C 
BRANCH   5   6
ATOM      6  C   UNL     1     -36.512  20.979   5.424  1.00  0.00     0.000 C 
BRANCH   6   7
ATOM      7  C   UNL     1     -37.920  20.398   5.582  1.00  0.00     0.006 C 
BRANCH   7   8
ATOM      8  C   UNL     1     -38.342  20.297   7.047  1.00  0.00     0.053 C 
BRANCH   8   9
ATOM      9  C   UNL     1     -39.773  20.703   7.267  1.00  0.00     0.041 C 
ATOM     10  O   UNL     1     -40.675  19.977   7.650  1.00  0.00    -0.550 OA
ATOM     11  O   UNL     1     -39.998  22.006   7.020  1.00  0.00    -0.550 OA
ENDBRANCH   8   9
ENDBRANCH   7   8
ENDBRANCH   6   7
ENDBRANCH   5   6
ENDBRANCH   4   5
ENDBRANCH   3   4
ENDBRANCH   2   3
ENDBRANCH   1   2
BRANCH   1  12
ATOM     12  C   UNL     1     -32.177  23.223   9.017  1.00  0.00     0.000 C 
BRANCH  12  13
ATOM     13  C   UNL     1     -32.165  24.411   8.057  1.00  0.00    -0.000 C 
BRANCH  13  14
ATOM     14  C   UNL     1     -32.423  24.020   6.599  1.00  0.00    -0.000 C 
BRANCH  14  15
ATOM     15  C   UNL     1     -31.785  22.705   6.139  1.00  0.00    -0.000 C 
BRANCH  15  16
ATOM     16  C   UNL     1     -32.736  21.700   5.480  1.00  0.00    -0.000 C 
BRANCH  16  17
ATOM     17  C   UNL     1     -32.487  20.254   5.914  1.00  0.00    -0.000 C 
BRANCH  17  18
ATOM     18  C   UNL     1     -31.759  20.197   7.259  1.00  0.00    -0.000 C 
BRANCH  18  19
ATOM     19  C   UNL     1     -32.323  19.138   8.210  1.00  0.00    -0.003 C 
ATOM     20  C   UNL     1     -33.801  18.849   7.988  1.00  0.00     0.004 C 
ENDBRANCH  18  19
ENDBRANCH  17  18
ENDBRANCH  16  17
ENDBRANCH  15  16
ENDBRANCH  14  15
ENDBRANCH  13  14
ENDBRANCH  12  13
ENDBRANCH   1  12
TORSDOF 16
ENDMDL
MODEL 10
REMARK VINA RESULT:    -5.822      1.022      3.437
REMARK INTER + INTRA:         -13.957
REMARK INTER:                 -11.519
REMARK INTRA:                  -2.438
REMARK UNBOUND:                -2.689
REMARK SMILES CCCCCCCCCCCCCCCCCC(=O)[O-]
REMARK SMILES IDX 10 1 11 2 12 3 13 4 14 5 15 6 16 7 17 8 18 9 19 10 20 11
REMARK SMILES IDX 9 12 8 13 7 14 6 15 5 16 4 17 3 18 2 19 1 20
REMARK H PARENT
REMARK INDEX MAP 4 1 6 2 8 3 10 4 12 5 14 6 16 7 18 8 20 9 2 10 1 11 3 12 5 13
REMARK INDEX MAP 7 14 9 15 11 16 13 17 15 18 17 19 19 20
ROOT
ATOM      1  C   UNL     1     -32.119  24.370   9.091  1.00  0.00     0.000 C 
ENDROOT
BRANCH   1   2
ATOM      2  C   UNL     1     -32.353  24.803   7.638  1.00  0.00     0.000 C 
BRANCH   2   3
ATOM      3  C   UNL     1     -33.247  23.828   6.867  1.00  0.00     0.000 C 
BRANCH   3   4
ATOM      4  C   UNL     1     -34.703  24.294   6.753  1.00  0.00     0.000 C 
BRANCH   4   5
ATOM      5  C   UNL     1     -35.731  23.487   7.554  1.00  0.00     0.000 C 
BRANCH   5   6
ATOM      6  C   UNL     1     -36.319  22.263   6.844  1.00  0.00     0.000 C 
BRANCH   6   7
ATOM      7  C   UNL     1     -37.751  21.934   7.274  1.00  0.00     0.006 C 
BRANCH   7   8
ATOM      8  C   UNL     1     -38.061  20.443   7.155  1.00  0.00     0.053 C 
BRANCH   8   9
ATOM      9  C   UNL     1     -39.444  20.178   6.628  1.00  0.00     0.041 C 
ATOM     10  O   UNL     1     -39.747  20.003   5.460  1.00  0.00    -0.550 OA
ATOM     11  O   UNL     1     -40.378  20.122   7.595  1.00  0.00    -0.550 OA
ENDBRANCH   8   9
ENDBRANCH   7   8
ENDBRANCH   6   7
ENDBRANCH   5   6
ENDBRANCH   4   5
ENDBRANCH   3   4
ENDBRANCH   2   3
ENDBRANCH   1   2
BRANCH   1  12
ATOM     12  C   UNL     1     -32.683  22.991   9.457  1.00  0.00     0.000 C 
BRANCH  12  13
ATOM     13  C   UNL     1     -33.730  23.014  10.570  1.00  0.00    -0.000 C 
BRANCH  13  14
ATOM     14  C   UNL     1     -34.208  21.619  10.986  1.00  0.00    -0.000 C 
BRANCH  14  15
ATOM     15  C   UNL     1     -34.892  20.796   9.890  1.00  0.00    -0.000 C 
BRANCH  15  16
ATOM     16  C   UNL     1     -34.024  19.722   9.225  1.00  0.00    -0.000 C 
BRANCH  16  17
ATOM     17  C   UNL     1     -34.207  19.647   7.707  1.00  0.00    -0.000 C 
BRANCH  17  18
ATOM     18  C   UNL     1     -32.968  20.166   6.974  1.00  0.00    -0.000 C 
BRANCH  18  19
ATOM     19  C   UNL     1     -32.932  19.775   5.494  1.00  0.00    -0.003 C 
ATOM     20  C   UNL     1     -33.574  20.805   4.577  1.00  0.00     0.004 C 
ENDBRANCH  18  19
ENDBRANCH  17  18
ENDBRANCH  16  17
ENDBRANCH  15  16
ENDBRANCH  14  15
ENDBRANCH  13  14
ENDBRANCH  12  13
ENDBRANCH   1  12
TORSDOF 16
ENDMDL
MODEL 11
REMARK VINA RESULT:    -5.820      3.019      6.025
REMARK INTER + INTRA:         -13.953
REMARK INTER:                 -11.243
REMARK INTRA:                  -2.710
REMARK UNBOUND:                -2.689
REMARK SMILES CCCCCCCCCCCCCCCCCC(=O)[O-]
REMARK SMILES IDX 10 1 11 2 12 3 13 4 14 5 15 6 16 7 17 8 18 9 19 10 20 11
REMARK SMILES IDX 9 12 8 13 7 14 6 15 5 16 4 17 3 18 2 19 1 20
REMARK H PARENT
REMARK INDEX MAP 4 1 6 2 8 3 10 4 12 5 14 6 16 7 18 8 20 9 2 10 1 11 3 12 5 13
REMARK INDEX MAP 7 14 9 15 11 16 13 17 15 18 17 19 19 20
ROOT
ATOM      1  C   UNL     1     -34.321  22.734  10.156  1.00  0.00     0.000 C 
ENDROOT
BRANCH   1   2
ATOM      2  C   UNL     1     -32.832  22.990   9.890  1.00  0.00     0.000 C 
BRANCH   2   3
ATOM      3  C   UNL     1     -32.592  24.212   8.997  1.00  0.00     0.000 C 
BRANCH   3   4
ATOM      4  C   UNL     1     -31.771  23.899   7.742  1.00  0.00     0.000 C 
BRANCH   4   5
ATOM      5  C   UNL     1     -32.573  23.551   6.484  1.00  0.00     0.000 C 
BRANCH   5   6
ATOM      6  C   UNL     1     -32.288  22.177   5.868  1.00  0.00     0.000 C 
BRANCH   6   7
ATOM      7  C   UNL     1     -32.021  21.083   6.905  1.00  0.00     0.006 C 
BRANCH   7   8
ATOM      8  C   UNL     1     -32.466  19.705   6.419  1.00  0.00     0.053 C 
BRANCH   8   9
ATOM      9  C   UNL     1     -31.679  18.587   7.044  1.00  0.00     0.041 C 
ATOM     10  O   UNL     1     -31.017  17.754   6.449  1.00  0.00    -0.550 OA
ATOM     11  O   UNL     1     -31.740  18.584   8.388  1.00  0.00    -0.550 OA
ENDBRANCH   8   9
ENDBRANCH   7   8
ENDBRANCH   6   7
ENDBRANCH   5   6
ENDBRANCH   4   5
ENDBRANCH   3   4
ENDBRANCH   2   3
ENDBRANCH   1   2
BRANCH   1  12
ATOM     12  C   UNL     1     -34.793  21.300   9.884  1.00  0.00     0.000 C 
BRANCH  12  13
ATOM     13  C   UNL     1     -35.414  21.092   8.504  1.00  0.00    -0.000 C 
BRANCH  13  14
ATOM     14  C   UNL     1     -35.704  22.401   7.763  1.00  0.00    -0.000 C 
BRANCH  14  15
ATOM     15  C   UNL     1     -36.179  22.255   6.314  1.00  0.00    -0.000 C 
BRANCH  15  16
ATOM     16  C   UNL     1     -35.837  20.925   5.633  1.00  0.00    -0.000 C 
BRANCH  16  17
ATOM     17  C   UNL     1     -36.990  20.351   4.806  1.00  0.00    -0.000 C 
BRANCH  17  18
ATOM     18  C   UNL     1     -38.342  20.661   5.453  1.00  0.00    -0.000 C 
BRANCH  18  19
ATOM     19  C   UNL     1     -38.666  19.755   6.643  1.00  0.00    -0.003 C 
ATOM     20  C   UNL     1     -39.547  20.419   7.691  1.00  0.00     0.004 C 
ENDBRANCH  18  19
ENDBRANCH  17  18
ENDBRANCH  16  17
ENDBRANCH  15  16
ENDBRANCH  14  15
ENDBRANCH  13  14
ENDBRANCH  12  13
ENDBRANCH   1  12
TORSDOF 16
ENDMDL
MODEL 12
REMARK VINA RESULT:    -5.820      3.089      4.711
REMARK INTER + INTRA:         -13.952
REMARK INTER:                 -11.562
REMARK INTRA:                  -2.390
REMARK UNBOUND:                -2.689
REMARK SMILES CCCCCCCCCCCCCCCCCC(=O)[O-]
REMARK SMILES IDX 10 1 11 2 12 3 13 4 14 5 15 6 16 7 17 8 18 9 19 10 20 11
REMARK SMILES IDX 9 12 8 13 7 14 6 15 5 16 4 17 3 18 2 19 1 20
REMARK H PARENT
REMARK INDEX MAP 4 1 6 2 8 3 10 4 12 5 14 6 16 7 18 8 20 9 2 10 1 11 3 12 5 13
REMARK INDEX MAP 7 14 9 15 11 16 13 17 15 18 17 19 19 20
ROOT
ATOM      1  C   UNL     1     -37.857  21.344   7.635  1.00  0.00     0.000 C 
ENDROOT
BRANCH   1   2
ATOM      2  C   UNL     1     -37.692  20.263   6.560  1.00  0.00     0.000 C 
BRANCH   2   3
ATOM      3  C   UNL     1     -37.778  20.825   5.137  1.00  0.00     0.000 C 
BRANCH   3   4
ATOM      4  C   UNL     1     -36.518  20.570   4.303  1.00  0.00     0.000 C 
BRANCH   4   5
ATOM      5  C   UNL     1     -35.244  21.278   4.776  1.00  0.00     0.000 C 
BRANCH   5   6
ATOM      6  C   UNL     1     -33.968  20.431   4.774  1.00  0.00     0.000 C 
BRANCH   6   7
ATOM      7  C   UNL     1     -33.720  19.691   6.092  1.00  0.00     0.006 C 
BRANCH   7   8
ATOM      8  C   UNL     1     -32.322  19.955   6.648  1.00  0.00     0.053 C 
BRANCH   8   9
ATOM      9  C   UNL     1     -31.650  18.704   7.144  1.00  0.00     0.041 C 
ATOM     10  O   UNL     1     -31.465  18.403   8.311  1.00  0.00    -0.550 OA
ATOM     11  O   UNL     1     -31.266  17.881   6.152  1.00  0.00    -0.550 OA
ENDBRANCH   8   9
ENDBRANCH   7   8
ENDBRANCH   6   7
ENDBRANCH   5   6
ENDBRANCH   4   5
ENDBRANCH   3   4
ENDBRANCH   2   3
ENDBRANCH   1   2
BRANCH   1  12
ATOM     12  C   UNL     1     -37.259  22.711   7.279  1.00  0.00     0.000 C 
BRANCH  12  13
ATOM     13  C   UNL     1     -35.967  23.046   8.022  1.00  0.00    -0.000 C 
BRANCH  13  14
ATOM     14  C   UNL     1     -35.178  21.809   8.462  1.00  0.00    -0.000 C 
BRANCH  14  15
ATOM     15  C   UNL     1     -34.581  21.867   9.872  1.00  0.00    -0.000 C 
BRANCH  15  16
ATOM     16  C   UNL     1     -33.644  23.048  10.149  1.00  0.00    -0.000 C 
BRANCH  16  17
ATOM     17  C   UNL     1     -32.474  23.139   9.166  1.00  0.00    -0.000 C 
BRANCH  17  18
ATOM     18  C   UNL     1     -32.155  24.595   8.819  1.00  0.00    -0.000 C 
BRANCH  18  19
ATOM     19  C   UNL     1     -32.544  24.978   7.389  1.00  0.00    -0.003 C 
ATOM     20  C   UNL     1     -32.359  23.848   6.387  1.00  0.00     0.004 C 
ENDBRANCH  18  19
ENDBRANCH  17  18
ENDBRANCH  16  17
ENDBRANCH  15  16
ENDBRANCH  14  15
ENDBRANCH  13  14
ENDBRANCH  12  13
ENDBRANCH   1  12
TORSDOF 16
ENDMDL
MODEL 13
REMARK VINA RESULT:    -5.794      1.086      2.833
REMARK INTER + INTRA:         -13.903
REMARK INTER:                 -11.302
REMARK INTRA:                  -2.601
REMARK UNBOUND:                -2.689
REMARK SMILES CCCCCCCCCCCCCCCCCC(=O)[O-]
REMARK SMILES IDX 10 1 11 2 12 3 13 4 14 5 15 6 16 7 17 8 18 9 19 10 20 11
REMARK SMILES IDX 9 12 8 13 7 14 6 15 5 16 4 17 3 18 2 19 1 20
REMARK H PARENT
REMARK INDEX MAP 4 1 6 2 8 3 10 4 12 5 14 6 16 7 18 8 20 9 2 10 1 11 3 12 5 13
REMARK INDEX MAP 7 14 9 15 11 16 13 17 15 18 17 19 19 20
ROOT
ATOM      1  C   UNL     1     -35.110  20.902   9.741  1.00  0.00     0.000 C 
ENDROOT
BRANCH   1   2
ATOM      2  C   UNL     1     -34.518  22.296   9.500  1.00  0.00     0.000 C 
BRANCH   2   3
ATOM      3  C   UNL     1     -35.311  23.106   8.470  1.00  0.00     0.000 C 
BRANCH   3   4
ATOM      4  C   UNL     1     -36.164  22.238   7.537  1.00  0.00     0.000 C 
BRANCH   4   5
ATOM      5  C   UNL     1     -35.543  21.904   6.177  1.00  0.00     0.000 C 
BRANCH   5   6
ATOM      6  C   UNL     1     -36.072  20.639   5.494  1.00  0.00     0.000 C 
BRANCH   6   7
ATOM      7  C   UNL     1     -37.538  20.740   5.063  1.00  0.00     0.006 C 
BRANCH   7   8
ATOM      8  C   UNL     1     -38.470  19.973   5.999  1.00  0.00     0.053 C 
BRANCH   8   9
ATOM      9  C   UNL     1     -39.331  20.882   6.832  1.00  0.00     0.041 C 
ATOM     10  O   UNL     1     -39.915  21.877   6.439  1.00  0.00    -0.550 OA
ATOM     11  O   UNL     1     -39.438  20.483   8.112  1.00  0.00    -0.550 OA
ENDBRANCH   8   9
ENDBRANCH   7   8
ENDBRANCH   6   7
ENDBRANCH   5   6
ENDBRANCH   4   5
ENDBRANCH   3   4
ENDBRANCH   2   3
ENDBRANCH   1   2
BRANCH   1  12
ATOM     12  C   UNL     1     -34.129  19.738   9.550  1.00  0.00     0.000 C 
BRANCH  12  13
ATOM     13  C   UNL     1     -34.141  19.126   8.150  1.00  0.00    -0.000 C 
BRANCH  13  14
ATOM     14  C   UNL     1     -32.771  18.615   7.697  1.00  0.00    -0.000 C 
BRANCH  14  15
ATOM     15  C   UNL     1     -31.705  19.689   7.457  1.00  0.00    -0.000 C 
BRANCH  15  16
ATOM     16  C   UNL     1     -32.169  20.924   6.678  1.00  0.00    -0.000 C 
BRANCH  16  17
ATOM     17  C   UNL     1     -31.668  22.242   7.273  1.00  0.00    -0.000 C 
BRANCH  17  18
ATOM     18  C   UNL     1     -32.211  23.443   6.494  1.00  0.00    -0.000 C 
BRANCH  18  19
ATOM     19  C   UNL     1     -32.061  24.769   7.243  1.00  0.00    -0.003 C 
ATOM     20  C   UNL     1     -31.841  24.600   8.739  1.00  0.00     0.004 C 
ENDBRANCH  18  19
ENDBRANCH  17  18
ENDBRANCH  16  17
ENDBRANCH  15  16
ENDBRANCH  14  15
ENDBRANCH  13  14
ENDBRANCH  12  13
ENDBRANCH   1  12
TORSDOF 16
ENDMDL
MODEL 14
REMARK VINA RESULT:    -5.776      2.663      4.930
REMARK INTER + INTRA:         -13.868
REMARK INTER:                 -11.132
REMARK INTRA:                  -2.735
REMARK UNBOUND:                -2.689
REMARK SMILES CCCCCCCCCCCCCCCCCC(=O)[O-]
REMARK SMILES IDX 10 1 11 2 12 3 13 4 14 5 15 6 16 7 17 8 18 9 19 10 20 11
REMARK SMILES IDX 9 12 8 13 7 14 6 15 5 16 4 17 3 18 2 19 1 20
REMARK H PARENT
REMARK INDEX MAP 4 1 6 2 8 3 10 4 12 5 14 6 16 7 18 8 20 9 2 10 1 11 3 12 5 13
REMARK INDEX MAP 7 14 9 15 11 16 13 17 15 18 17 19 19 20
ROOT
ATOM      1  C   UNL     1     -31.776  22.662   7.188  1.00  0.00     0.000 C 
ENDROOT
BRANCH   1   2
ATOM      2  C   UNL     1     -32.104  23.907   8.022  1.00  0.00     0.000 C 
BRANCH   2   3
ATOM      3  C   UNL     1     -33.068  24.860   7.309  1.00  0.00     0.000 C 
BRANCH   3   4
ATOM      4  C   UNL     1     -34.358  24.181   6.834  1.00  0.00     0.000 C 
BRANCH   4   5
ATOM      5  C   UNL     1     -35.338  23.759   7.934  1.00  0.00     0.000 C 
BRANCH   5   6
ATOM      6  C   UNL     1     -36.178  22.513   7.638  1.00  0.00     0.000 C 
BRANCH   6   7
ATOM      7  C   UNL     1     -35.761  21.283   8.450  1.00  0.00     0.006 C 
BRANCH   7   8
ATOM      8  C   UNL     1     -34.925  21.656   9.673  1.00  0.00     0.053 C 
BRANCH   8   9
ATOM      9  C   UNL     1     -34.614  20.471  10.545  1.00  0.00     0.041 C 
ATOM     10  O   UNL     1     -34.736  20.419  11.757  1.00  0.00    -0.550 OA
ATOM     11  O   UNL     1     -34.188  19.400   9.851  1.00  0.00    -0.550 OA
ENDBRANCH   8   9
ENDBRANCH   7   8
ENDBRANCH   6   7
ENDBRANCH   5   6
ENDBRANCH   4   5
ENDBRANCH   3   4
ENDBRANCH   2   3
ENDBRANCH   1   2
BRANCH   1  12
ATOM     12  C   UNL     1     -32.062  21.323   7.880  1.00  0.00     0.000 C 
BRANCH  12  13
ATOM     13  C   UNL     1     -31.075  20.211   7.531  1.00  0.00    -0.000 C 
BRANCH  13  14
ATOM     14  C   UNL     1     -31.744  18.850   7.309  1.00  0.00    -0.000 C 
BRANCH  14  15
ATOM     15  C   UNL     1     -32.858  18.820   6.258  1.00  0.00    -0.000 C 
BRANCH  15  16
ATOM     16  C   UNL     1     -32.428  19.137   4.822  1.00  0.00    -0.000 C 
BRANCH  16  17
ATOM     17  C   UNL     1     -33.112  20.378   4.243  1.00  0.00    -0.000 C 
BRANCH  17  18
ATOM     18  C   UNL     1     -34.301  20.808   5.106  1.00  0.00    -0.000 C 
BRANCH  18  19
ATOM     19  C   UNL     1     -35.547  21.158   4.289  1.00  0.00    -0.003 C 
ATOM     20  C   UNL     1     -36.772  20.339   4.667  1.00  0.00     0.004 C 
ENDBRANCH  18  19
ENDBRANCH  17  18
ENDBRANCH  16  17
ENDBRANCH  15  16
ENDBRANCH  14  15
ENDBRANCH  13  14
ENDBRANCH  12  13
ENDBRANCH   1  12
TORSDOF 16
ENDMDL
MODEL 15
REMARK VINA RESULT:    -5.748      1.438      2.938
REMARK INTER + INTRA:         -13.813
REMARK INTER:                 -11.222
REMARK INTRA:                  -2.591
REMARK UNBOUND:                -2.689
REMARK SMILES CCCCCCCCCCCCCCCCCC(=O)[O-]
REMARK SMILES IDX 10 1 11 2 12 3 13 4 14 5 15 6 16 7 17 8 18 9 19 10 20 11
REMARK SMILES IDX 9 12 8 13 7 14 6 15 5 16 4 17 3 18 2 19 1 20
REMARK H PARENT
REMARK INDEX MAP 4 1 6 2 8 3 10 4 12 5 14 6 16 7 18 8 20 9 2 10 1 11 3 12 5 13
REMARK INDEX MAP 7 14 9 15 11 16 13 17 15 18 17 19 19 20
ROOT
ATOM      1  C   UNL     1     -31.997  21.001   7.236  1.00  0.00     0.000 C 
ENDROOT
BRANCH   1   2
ATOM      2  C   UNL     1     -32.769  19.970   6.403  1.00  0.00     0.000 C 
BRANCH   2   3
ATOM      3  C   UNL     1     -32.786  20.310   4.909  1.00  0.00     0.000 C 
BRANCH   3   4
ATOM      4  C   UNL     1     -34.128  20.870   4.427  1.00  0.00     0.000 C 
BRANCH   4   5
ATOM      5  C   UNL     1     -35.368  20.403   5.198  1.00  0.00     0.000 C 
BRANCH   5   6
ATOM      6  C   UNL     1     -36.662  21.171   4.911  1.00  0.00     0.000 C 
BRANCH   6   7
ATOM      7  C   UNL     1     -37.926  20.438   5.372  1.00  0.00     0.006 C 
BRANCH   7   8
ATOM      8  C   UNL     1     -38.181  20.613   6.867  1.00  0.00     0.053 C 
BRANCH   8   9
ATOM      9  C   UNL     1     -39.622  20.915   7.178  1.00  0.00     0.041 C 
ATOM     10  O   UNL     1     -40.444  20.126   7.611  1.00  0.00    -0.550 OA
ATOM     11  O   UNL     1     -39.954  22.199   6.953  1.00  0.00    -0.550 OA
ENDBRANCH   8   9
ENDBRANCH   7   8
ENDBRANCH   6   7
ENDBRANCH   5   6
ENDBRANCH   4   5
ENDBRANCH   3   4
ENDBRANCH   2   3
ENDBRANCH   1   2
BRANCH   1  12
ATOM     12  C   UNL     1     -31.788  22.360   6.557  1.00  0.00     0.000 C 
BRANCH  12  13
ATOM     13  C   UNL     1     -32.175  23.561   7.418  1.00  0.00    -0.000 C 
BRANCH  13  14
ATOM     14  C   UNL     1     -33.280  24.423   6.800  1.00  0.00    -0.000 C 
BRANCH  14  15
ATOM     15  C   UNL     1     -34.690  23.825   6.835  1.00  0.00    -0.000 C 
BRANCH  15  16
ATOM     16  C   UNL     1     -35.241  23.503   8.229  1.00  0.00    -0.000 C 
BRANCH  16  17
ATOM     17  C   UNL     1     -35.386  22.003   8.493  1.00  0.00    -0.000 C 
BRANCH  17  18
ATOM     18  C   UNL     1     -34.561  21.574   9.709  1.00  0.00    -0.000 C 
BRANCH  18  19
ATOM     19  C   UNL     1     -33.778  22.724  10.347  1.00  0.00    -0.003 C 
ATOM     20  C   UNL     1     -33.889  22.767  11.864  1.00  0.00     0.004 C 
ENDBRANCH  18  19
ENDBRANCH  17  18
ENDBRANCH  16  17
ENDBRANCH  15  16
ENDBRANCH  14  15
ENDBRANCH  13  14
ENDBRANCH  12  13
ENDBRANCH   1  12
TORSDOF 16
ENDMDL
MODEL 16
REMARK VINA RESULT:    -5.683      1.670      3.262
REMARK INTER + INTRA:         -13.689
REMARK INTER:                 -11.230
REMARK INTRA:                  -2.459
REMARK UNBOUND:                -2.689
REMARK SMILES CCCCCCCCCCCCCCCCCC(=O)[O-]
REMARK SMILES IDX 10 1 11 2 12 3 13 4 14 5 15 6 16 7 17 8 18 9 19 10 20 11
REMARK SMILES IDX 9 12 8 13 7 14 6 15 5 16 4 17 3 18 2 19 1 20
REMARK H PARENT
REMARK INDEX MAP 4 1 6 2 8 3 10 4 12 5 14 6 16 7 18 8 20 9 2 10 1 11 3 12 5 13
REMARK INDEX MAP 7 14 9 15 11 16 13 17 15 18 17 19 19 20
ROOT
ATOM      1  C   UNL     1     -32.747  20.278   5.598  1.00  0.00     0.000 C 
ENDROOT
BRANCH   1   2
ATOM      2  C   UNL     1     -34.281  20.245   5.599  1.00  0.00     0.000 C 
BRANCH   2   3
ATOM      3  C   UNL     1     -34.887  20.887   4.348  1.00  0.00     0.000 C 
BRANCH   3   4
ATOM      4  C   UNL     1     -36.396  20.658   4.215  1.00  0.00     0.000 C 
BRANCH   4   5
ATOM      5  C   UNL     1     -37.208  20.761   5.510  1.00  0.00     0.000 C 
BRANCH   5   6
ATOM      6  C   UNL     1     -38.699  20.428   5.393  1.00  0.00     0.000 C 
BRANCH   6   7
ATOM      7  C   UNL     1     -39.356  20.072   6.729  1.00  0.00     0.006 C 
BRANCH   7   8
ATOM      8  C   UNL     1     -39.056  21.105   7.814  1.00  0.00     0.053 C 
BRANCH   8   9
ATOM      9  C   UNL     1     -39.822  22.385   7.623  1.00  0.00     0.041 C 
ATOM     10  O   UNL     1     -41.034  22.492   7.539  1.00  0.00    -0.550 OA
ATOM     11  O   UNL     1     -39.032  23.472   7.574  1.00  0.00    -0.550 OA
ENDBRANCH   8   9
ENDBRANCH   7   8
ENDBRANCH   6   7
ENDBRANCH   5   6
ENDBRANCH   4   5
ENDBRANCH   3   4
ENDBRANCH   2   3
ENDBRANCH   1   2
BRANCH   1  12
ATOM     12  C   UNL     1     -32.094  20.203   6.984  1.00  0.00     0.000 C 
BRANCH  12  13
ATOM     13  C   UNL     1     -31.794  21.562   7.613  1.00  0.00    -0.000 C 
BRANCH  13  14
ATOM     14  C   UNL     1     -31.869  22.724   6.618  1.00  0.00    -0.000 C 
BRANCH  14  15
ATOM     15  C   UNL     1     -32.228  24.089   7.215  1.00  0.00    -0.000 C 
BRANCH  15  16
ATOM     16  C   UNL     1     -33.601  24.645   6.825  1.00  0.00    -0.000 C 
BRANCH  16  17
ATOM     17  C   UNL     1     -34.716  23.597   6.871  1.00  0.00    -0.000 C 
BRANCH  17  18
ATOM     18  C   UNL     1     -35.505  23.687   8.180  1.00  0.00    -0.000 C 
BRANCH  18  19
ATOM     19  C   UNL     1     -35.037  22.686   9.239  1.00  0.00    -0.003 C 
ATOM     20  C   UNL     1     -35.274  21.234   8.851  1.00  0.00     0.004 C 
ENDBRANCH  18  19
ENDBRANCH  17  18
ENDBRANCH  16  17
ENDBRANCH  15  16
ENDBRANCH  14  15
ENDBRANCH  13  14
ENDBRANCH  12  13
ENDBRANCH   1  12
TORSDOF 16
ENDMDL
MODEL 17
REMARK VINA RESULT:    -5.669      3.025      5.677
REMARK INTER + INTRA:         -13.662
REMARK INTER:                 -11.326
REMARK INTRA:                  -2.335
REMARK UNBOUND:                -2.689
REMARK SMILES CCCCCCCCCCCCCCCCCC(=O)[O-]
REMARK SMILES IDX 10 1 11 2 12 3 13 4 14 5 15 6 16 7 17 8 18 9 19 10 20 11
REMARK SMILES IDX 9 12 8 13 7 14 6 15 5 16 4 17 3 18 2 19 1 20
REMARK H PARENT
REMARK INDEX MAP 4 1 6 2 8 3 10 4 12 5 14 6 16 7 18 8 20 9 2 10 1 11 3 12 5 13
REMARK INDEX MAP 7 14 9 15 11 16 13 17 15 18 17 19 19 20
ROOT
ATOM      1  C   UNL     1     -32.453  23.265   9.352  1.00  0.00     0.000 C 
ENDROOT
BRANCH   1   2
ATOM      2  C   UNL     1     -32.357  24.473   8.410  1.00  0.00     0.000 C 
BRANCH   2   3
ATOM      3  C   UNL     1     -32.642  24.109   6.950  1.00  0.00     0.000 C 
BRANCH   3   4
ATOM      4  C   UNL     1     -32.109  22.729   6.549  1.00  0.00     0.000 C 
BRANCH   4   5
ATOM      5  C   UNL     1     -33.109  21.798   5.856  1.00  0.00     0.000 C 
BRANCH   5   6
ATOM      6  C   UNL     1     -32.530  20.882   4.774  1.00  0.00     0.000 C 
BRANCH   6   7
ATOM      7  C   UNL     1     -32.847  19.400   4.989  1.00  0.00     0.006 C 
BRANCH   7   8
ATOM      8  C   UNL     1     -33.038  19.058   6.465  1.00  0.00     0.053 C 
BRANCH   8   9
ATOM      9  C   UNL     1     -31.823  18.411   7.072  1.00  0.00     0.041 C 
ATOM     10  O   UNL     1     -30.993  17.744   6.480  1.00  0.00    -0.550 OA
ATOM     11  O   UNL     1     -31.697  18.654   8.390  1.00  0.00    -0.550 OA
ENDBRANCH   8   9
ENDBRANCH   7   8
ENDBRANCH   6   7
ENDBRANCH   5   6
ENDBRANCH   4   5
ENDBRANCH   3   4
ENDBRANCH   2   3
ENDBRANCH   1   2
BRANCH   1  12
ATOM     12  C   UNL     1     -33.833  23.042   9.984  1.00  0.00     0.000 C 
BRANCH  12  13
ATOM     13  C   UNL     1     -34.312  21.592   9.954  1.00  0.00    -0.000 C 
BRANCH  13  14
ATOM     14  C   UNL     1     -35.288  21.296   8.811  1.00  0.00    -0.000 C 
BRANCH  14  15
ATOM     15  C   UNL     1     -35.898  22.521   8.122  1.00  0.00    -0.000 C 
BRANCH  15  16
ATOM     16  C   UNL     1     -36.595  22.253   6.784  1.00  0.00    -0.000 C 
BRANCH  16  17
ATOM     17  C   UNL     1     -36.529  20.787   6.347  1.00  0.00    -0.000 C 
BRANCH  17  18
ATOM     18  C   UNL     1     -37.135  20.597   4.954  1.00  0.00    -0.000 C 
BRANCH  18  19
ATOM     19  C   UNL     1     -38.660  20.468   4.970  1.00  0.00    -0.003 C 
ATOM     20  C   UNL     1     -39.216  19.999   6.306  1.00  0.00     0.004 C 
ENDBRANCH  18  19
ENDBRANCH  17  18
ENDBRANCH  16  17
ENDBRANCH  15  16
ENDBRANCH  14  15
ENDBRANCH  13  14
ENDBRANCH  12  13
ENDBRANCH   1  12
TORSDOF 16
ENDMDL
MODEL 18
REMARK VINA RESULT:    -5.653      1.011      3.407
REMARK INTER + INTRA:         -13.629
REMARK INTER:                 -11.117
REMARK INTRA:                  -2.512
REMARK UNBOUND:                -2.689
REMARK SMILES CCCCCCCCCCCCCCCCCC(=O)[O-]
REMARK SMILES IDX 10 1 11 2 12 3 13 4 14 5 15 6 16 7 17 8 18 9 19 10 20 11
REMARK SMILES IDX 9 12 8 13 7 14 6 15 5 16 4 17 3 18 2 19 1 20
REMARK H PARENT
REMARK INDEX MAP 4 1 6 2 8 3 10 4 12 5 14 6 16 7 18 8 20 9 2 10 1 11 3 12 5 13
REMARK INDEX MAP 7 14 9 15 11 16 13 17 15 18 17 19 19 20
ROOT
ATOM      1  C   UNL     1     -32.655  23.939   6.837  1.00  0.00     0.000 C 
ENDROOT
BRANCH   1   2
ATOM      2  C   UNL     1     -31.802  22.742   6.396  1.00  0.00     0.000 C 
BRANCH   2   3
ATOM      3  C   UNL     1     -32.601  21.712   5.592  1.00  0.00     0.000 C 
BRANCH   3   4
ATOM      4  C   UNL     1     -34.117  21.912   5.679  1.00  0.00     0.000 C 
BRANCH   4   5
ATOM      5  C   UNL     1     -34.976  20.843   4.994  1.00  0.00     0.000 C 
BRANCH   5   6
ATOM      6  C   UNL     1     -36.458  20.826   5.383  1.00  0.00     0.000 C 
BRANCH   6   7
ATOM      7  C   UNL     1     -36.698  20.922   6.892  1.00  0.00     0.006 C 
BRANCH   7   8
ATOM      8  C   UNL     1     -37.936  21.749   7.229  1.00  0.00     0.053 C 
BRANCH   8   9
ATOM      9  C   UNL     1     -39.218  21.034   6.902  1.00  0.00     0.041 C 
ATOM     10  O   UNL     1     -39.652  20.811   5.785  1.00  0.00    -0.550 OA
ATOM     11  O   UNL     1     -39.882  20.612   7.994  1.00  0.00    -0.550 OA
ENDBRANCH   8   9
ENDBRANCH   7   8
ENDBRANCH   6   7
ENDBRANCH   5   6
ENDBRANCH   4   5
ENDBRANCH   3   4
ENDBRANCH   2   3
ENDBRANCH   1   2
BRANCH   1  12
ATOM     12  C   UNL     1     -32.423  24.406   8.279  1.00  0.00     0.000 C 
BRANCH  12  13
ATOM     13  C   UNL     1     -32.823  23.386   9.344  1.00  0.00    -0.000 C 
BRANCH  13  14
ATOM     14  C   UNL     1     -34.227  22.809   9.139  1.00  0.00    -0.000 C 
BRANCH  14  15
ATOM     15  C   UNL     1     -34.720  21.854  10.231  1.00  0.00    -0.000 C 
BRANCH  15  16
ATOM     16  C   UNL     1     -34.413  20.370  10.005  1.00  0.00    -0.000 C 
BRANCH  16  17
ATOM     17  C   UNL     1     -33.578  20.107   8.749  1.00  0.00    -0.000 C 
BRANCH  17  18
ATOM     18  C   UNL     1     -34.031  18.826   8.043  1.00  0.00    -0.000 C 
BRANCH  18  19
ATOM     19  C   UNL     1     -32.988  18.270   7.071  1.00  0.00    -0.003 C 
ATOM     20  C   UNL     1     -31.561  18.669   7.416  1.00  0.00     0.004 C 
ENDBRANCH  18  19
ENDBRANCH  17  18
ENDBRANCH  16  17
ENDBRANCH  15  16
ENDBRANCH  14  15
ENDBRANCH  13  14
ENDBRANCH  12  13
ENDBRANCH   1  12
TORSDOF 16
ENDMDL
MODEL 19
REMARK VINA RESULT:    -5.608      1.309      2.945
REMARK INTER + INTRA:         -13.544
REMARK INTER:                 -11.147
REMARK INTRA:                  -2.397
REMARK UNBOUND:                -2.689
REMARK SMILES CCCCCCCCCCCCCCCCCC(=O)[O-]
REMARK SMILES IDX 10 1 11 2 12 3 13 4 14 5 15 6 16 7 17 8 18 9 19 10 20 11
REMARK SMILES IDX 9 12 8 13 7 14 6 15 5 16 4 17 3 18 2 19 1 20
REMARK H PARENT
REMARK INDEX MAP 4 1 6 2 8 3 10 4 12 5 14 6 16 7 18 8 20 9 2 10 1 11 3 12 5 13
REMARK INDEX MAP 7 14 9 15 11 16 13 17 15 18 17 19 19 20
ROOT
ATOM      1  C   UNL     1     -33.434  18.644   6.264  1.00  0.00     0.000 C 
ENDROOT
BRANCH   1   2
ATOM      2  C   UNL     1     -32.910  18.540   7.702  1.00  0.00     0.000 C 
BRANCH   2   3
ATOM      3  C   UNL     1     -33.740  19.359   8.695  1.00  0.00     0.000 C 
BRANCH   3   4
ATOM      4  C   UNL     1     -34.939  20.064   8.052  1.00  0.00     0.000 C 
BRANCH   4   5
ATOM      5  C   UNL     1     -35.417  21.344   8.747  1.00  0.00     0.000 C 
BRANCH   5   6
ATOM      6  C   UNL     1     -36.157  22.350   7.859  1.00  0.00     0.000 C 
BRANCH   6   7
ATOM      7  C   UNL     1     -37.049  21.695   6.801  1.00  0.00     0.006 C 
BRANCH   7   8
ATOM      8  C   UNL     1     -38.524  21.717   7.195  1.00  0.00     0.053 C 
BRANCH   8   9
ATOM      9  C   UNL     1     -39.153  20.351   7.167  1.00  0.00     0.041 C 
ATOM     10  O   UNL     1     -38.596  19.310   6.863  1.00  0.00    -0.550 OA
ATOM     11  O   UNL     1     -40.444  20.354   7.546  1.00  0.00    -0.550 OA
ENDBRANCH   8   9
ENDBRANCH   7   8
ENDBRANCH   6   7
ENDBRANCH   5   6
ENDBRANCH   4   5
ENDBRANCH   3   4
ENDBRANCH   2   3
ENDBRANCH   1   2
BRANCH   1  12
ATOM     12  C   UNL     1     -32.426  19.184   5.242  1.00  0.00     0.000 C 
BRANCH  12  13
ATOM     13  C   UNL     1     -32.901  20.419   4.480  1.00  0.00    -0.000 C 
BRANCH  13  14
ATOM     14  C   UNL     1     -33.084  21.652   5.370  1.00  0.00    -0.000 C 
BRANCH  14  15
ATOM     15  C   UNL     1     -31.794  22.291   5.896  1.00  0.00    -0.000 C 
BRANCH  15  16
ATOM     16  C   UNL     1     -31.480  22.037   7.374  1.00  0.00    -0.000 C 
BRANCH  16  17
ATOM     17  C   UNL     1     -32.313  22.898   8.328  1.00  0.00    -0.000 C 
BRANCH  17  18
ATOM     18  C   UNL     1     -31.775  24.329   8.393  1.00  0.00    -0.000 C 
BRANCH  18  19
ATOM     19  C   UNL     1     -32.485  25.288   7.434  1.00  0.00    -0.003 C 
ATOM     20  C   UNL     1     -33.896  24.850   7.071  1.00  0.00     0.004 C 
ENDBRANCH  18  19
ENDBRANCH  17  18
ENDBRANCH  16  17
ENDBRANCH  15  16
ENDBRANCH  14  15
ENDBRANCH  13  14
ENDBRANCH  12  13
ENDBRANCH   1  12
TORSDOF 16
ENDMDL
MODEL 20
REMARK VINA RESULT:    -5.583      1.089      4.296
REMARK INTER + INTRA:         -13.494
REMARK INTER:                 -10.958
REMARK INTRA:                  -2.536
REMARK UNBOUND:                -2.689
REMARK SMILES CCCCCCCCCCCCCCCCCC(=O)[O-]
REMARK SMILES IDX 10 1 11 2 12 3 13 4 14 5 15 6 16 7 17 8 18 9 19 10 20 11
REMARK SMILES IDX 9 12 8 13 7 14 6 15 5 16 4 17 3 18 2 19 1 20
REMARK H PARENT
REMARK INDEX MAP 4 1 6 2 8 3 10 4 12 5 14 6 16 7 18 8 20 9 2 10 1 11 3 12 5 13
REMARK INDEX MAP 7 14 9 15 11 16 13 17 15 18 17 19 19 20
ROOT
ATOM      1  C   UNL     1     -32.602  24.561   7.701  1.00  0.00     0.000 C 
ENDROOT
BRANCH   1   2
ATOM      2  C   UNL     1     -32.360  23.797   9.009  1.00  0.00     0.000 C 
BRANCH   2   3
ATOM      3  C   UNL     1     -33.605  23.050   9.498  1.00  0.00     0.000 C 
BRANCH   3   4
ATOM      4  C   UNL     1     -34.857  23.339   8.663  1.00  0.00     0.000 C 
BRANCH   4   5
ATOM      5  C   UNL     1     -35.734  22.129   8.327  1.00  0.00     0.000 C 
BRANCH   5   6
ATOM      6  C   UNL     1     -36.434  22.168   6.965  1.00  0.00     0.000 C 
BRANCH   6   7
ATOM      7  C   UNL     1     -36.693  20.782   6.367  1.00  0.00     0.006 C 
BRANCH   7   8
ATOM      8  C   UNL     1     -38.027  20.196   6.825  1.00  0.00     0.053 C 
BRANCH   8   9
ATOM      9  C   UNL     1     -39.206  20.843   6.153  1.00  0.00     0.041 C 
ATOM     10  O   UNL     1     -39.522  20.722   4.982  1.00  0.00    -0.550 OA
ATOM     11  O   UNL     1     -39.947  21.593   6.989  1.00  0.00    -0.550 OA
ENDBRANCH   8   9
ENDBRANCH   7   8
ENDBRANCH   6   7
ENDBRANCH   5   6
ENDBRANCH   4   5
ENDBRANCH   3   4
ENDBRANCH   2   3
ENDBRANCH   1   2
BRANCH   1  12
ATOM     12  C   UNL     1     -31.898  23.980   6.469  1.00  0.00     0.000 C 
BRANCH  12  13
ATOM     13  C   UNL     1     -31.857  22.453   6.428  1.00  0.00    -0.000 C 
BRANCH  13  14
ATOM     14  C   UNL     1     -33.068  21.829   5.729  1.00  0.00    -0.000 C 
BRANCH  14  15
ATOM     15  C   UNL     1     -32.809  20.506   5.002  1.00  0.00    -0.000 C 
BRANCH  15  16
ATOM     16  C   UNL     1     -33.191  19.238   5.773  1.00  0.00    -0.000 C 
BRANCH  16  17
ATOM     17  C   UNL     1     -32.041  18.661   6.602  1.00  0.00    -0.000 C 
BRANCH  17  18
ATOM     18  C   UNL     1     -32.304  18.821   8.101  1.00  0.00    -0.000 C 
BRANCH  18  19
ATOM     19  C   UNL     1     -33.729  19.282   8.420  1.00  0.00    -0.003 C 
ATOM     20  C   UNL     1     -34.044  19.295   9.909  1.00  0.00     0.004 C 
ENDBRANCH  18  19
ENDBRANCH  17  18
ENDBRANCH  16  17
ENDBRANCH  15  16
ENDBRANCH  14  15
ENDBRANCH  13  14
ENDBRANCH  12  13
ENDBRANCH   1  12
TORSDOF 16
ENDMDL
