MODEL 1
REMARK VINA RESULT:    -6.029      0.000      0.000
REMARK INTER + INTRA:         -14.378
REMARK INTER:                 -11.668
REMARK INTRA:                  -2.710
REMARK UNBOUND:                -2.710
REMARK SMILES CCCCCCCCCCCCCCCCCC(=O)[O-]
REMARK SMILES IDX 10 1 11 2 12 3 13 4 14 5 15 6 16 7 17 8 18 9 19 10 20 11
REMARK SMILES IDX 9 12 8 13 7 14 6 15 5 16 4 17 3 18 2 19 1 20
REMARK H PARENT
REMARK INDEX MAP 4 1 6 2 8 3 10 4 12 5 14 6 16 7 18 8 20 9 2 10 1 11 3 12 5 13
REMARK INDEX MAP 7 14 9 15 11 16 13 17 15 18 17 19 19 20
ROOT
ATOM      1  C   UNL     1     -34.182  19.452   9.881  1.00  0.00     0.000 C 
ENDROOT
BRANCH   1   2
ATOM      2  C   UNL     1     -34.777  20.843  10.136  1.00  0.00     0.000 C 
BRANCH   2   3
ATOM      3  C   UNL     1     -34.429  21.846   9.033  1.00  0.00     0.000 C 
BRANCH   3   4
ATOM      4  C   UNL     1     -35.490  22.936   8.842  1.00  0.00     0.000 C 
BRANCH   4   5
ATOM      5  C   UNL     1     -36.250  22.907   7.512  1.00  0.00     0.000 C 
BRANCH   5   6
ATOM      6  C   UNL     1     -35.915  21.742   6.575  1.00  0.00     0.000 C 
BRANCH   6   7
ATOM      7  C   UNL     1     -37.140  20.938   6.131  1.00  0.00     0.006 C 
BRANCH   7   8
ATOM      8  C   UNL     1     -37.979  20.463   7.315  1.00  0.00     0.053 C 
BRANCH   8   9
ATOM      9  C   UNL     1     -39.454  20.461   7.017  1.00  0.00     0.041 C 
ATOM     10  O   UNL     1     -40.343  20.783   7.786  1.00  0.00    -0.550 OA
ATOM     11  O   UNL     1     -39.739  20.077   5.760  1.00  0.00    -0.550 OA
ENDBRANCH   8   9
ENDBRANCH   7   8
ENDBRANCH   6   7
ENDBRANCH   5   6
ENDBRANCH   4   5
ENDBRANCH   3   4
ENDBRANCH   2   3
ENDBRANCH   1   2
BRANCH   1  12
ATOM     12  C   UNL     1     -33.923  19.116   8.407  1.00  0.00     0.000 C 
BRANCH  12  13
ATOM     13  C   UNL     1     -32.460  18.829   8.074  1.00  0.00    -0.000 C 
BRANCH  13  14
ATOM     14  C   UNL     1     -31.801  19.925   7.232  1.00  0.00    -0.000 C 
BRANCH  14  15
ATOM     15  C   UNL     1     -32.495  20.256   5.907  1.00  0.00    -0.000 C 
BRANCH  15  16
ATOM     16  C   UNL     1     -32.483  21.733   5.500  1.00  0.00    -0.000 C 
BRANCH  16  17
ATOM     17  C   UNL     1     -32.060  22.672   6.633  1.00  0.00    -0.000 C 
BRANCH  17  18
ATOM     18  C   UNL     1     -32.765  24.026   6.522  1.00  0.00    -0.000 C 
BRANCH  18  19
ATOM     19  C   UNL     1     -32.201  25.083   7.475  1.00  0.00    -0.003 C 
ATOM     20  C   UNL     1     -31.846  24.534   8.849  1.00  0.00     0.004 C 
ENDBRANCH  18  19
ENDBRANCH  17  18
ENDBRANCH  16  17
ENDBRANCH  15  16
ENDBRANCH  14  15
ENDBRANCH  13  14
ENDBRANCH  12  13
ENDBRANCH   1  12
TORSDOF 16
ENDMDL
MODEL 2
REMARK VINA RESULT:    -5.987      1.328      4.304
REMARK INTER + INTRA:         -14.298
REMARK INTER:                 -11.632
REMARK INTRA:                  -2.666
REMARK UNBOUND:                -2.710
REMARK SMILES CCCCCCCCCCCCCCCCCC(=O)[O-]
REMARK SMILES IDX 10 1 11 2 12 3 13 4 14 5 15 6 16 7 17 8 18 9 19 10 20 11
REMARK SMILES IDX 9 12 8 13 7 14 6 15 5 16 4 17 3 18 2 19 1 20
REMARK H PARENT
REMARK INDEX MAP 4 1 6 2 8 3 10 4 12 5 14 6 16 7 18 8 20 9 2 10 1 11 3 12 5 13
REMARK INDEX MAP 7 14 9 15 11 16 13 17 15 18 17 19 19 20
ROOT
ATOM      1  C   UNL     1     -31.990  23.000   6.684  1.00  0.00     0.000 C 
ENDROOT
BRANCH   1   2
ATOM      2  C   UNL     1     -31.681  21.788   7.572  1.00  0.00     0.000 C 
BRANCH   2   3
ATOM      3  C   UNL     1     -32.521  20.560   7.210  1.00  0.00     0.000 C 
BRANCH   3   4
ATOM      4  C   UNL     1     -33.192  20.662   5.836  1.00  0.00     0.000 C 
BRANCH   4   5
ATOM      5  C   UNL     1     -34.704  20.421   5.806  1.00  0.00     0.000 C 
BRANCH   5   6
ATOM      6  C   UNL     1     -35.444  20.964   4.579  1.00  0.00     0.000 C 
BRANCH   6   7
ATOM      7  C   UNL     1     -36.918  20.553   4.520  1.00  0.00     0.006 C 
BRANCH   7   8
ATOM      8  C   UNL     1     -37.586  20.599   5.892  1.00  0.00     0.053 C 
BRANCH   8   9
ATOM      9  C   UNL     1     -39.086  20.677   5.805  1.00  0.00     0.041 C 
ATOM     10  O   UNL     1     -39.795  20.043   5.042  1.00  0.00    -0.550 OA
ATOM     11  O   UNL     1     -39.625  21.527   6.697  1.00  0.00    -0.550 OA
ENDBRANCH   8   9
ENDBRANCH   7   8
ENDBRANCH   6   7
ENDBRANCH   5   6
ENDBRANCH   4   5
ENDBRANCH   3   4
ENDBRANCH   2   3
ENDBRANCH   1   2
BRANCH   1  12
ATOM     12  C   UNL     1     -32.177  24.325   7.434  1.00  0.00     0.000 C 
BRANCH  12  13
ATOM     13  C   UNL     1     -33.550  24.968   7.245  1.00  0.00    -0.000 C 
BRANCH  13  14
ATOM     14  C   UNL     1     -34.646  23.966   6.872  1.00  0.00    -0.000 C 
BRANCH  14  15
ATOM     15  C   UNL     1     -35.615  23.588   7.997  1.00  0.00    -0.000 C 
BRANCH  15  16
ATOM     16  C   UNL     1     -35.155  22.452   8.917  1.00  0.00    -0.000 C 
BRANCH  16  17
ATOM     17  C   UNL     1     -34.386  22.939  10.147  1.00  0.00    -0.000 C 
BRANCH  17  18
ATOM     18  C   UNL     1     -34.019  21.772  11.067  1.00  0.00    -0.000 C 
BRANCH  18  19
ATOM     19  C   UNL     1     -34.648  20.443  10.642  1.00  0.00    -0.003 C 
ATOM     20  C   UNL     1     -34.287  19.280  11.554  1.00  0.00     0.004 C 
ENDBRANCH  18  19
ENDBRANCH  17  18
ENDBRANCH  16  17
ENDBRANCH  15  16
ENDBRANCH  14  15
ENDBRANCH  13  14
ENDBRANCH  12  13
ENDBRANCH   1  12
TORSDOF 16
ENDMDL
MODEL 3
REMARK VINA RESULT:    -5.985      1.343      3.671
REMARK INTER + INTRA:         -14.293
REMARK INTER:                 -11.349
REMARK INTRA:                  -2.945
REMARK UNBOUND:                -2.710
REMARK SMILES CCCCCCCCCCCCCCCCCC(=O)[O-]
REMARK SMILES IDX 10 1 11 2 12 3 13 4 14 5 15 6 16 7 17 8 18 9 19 10 20 11
REMARK SMILES IDX 9 12 8 13 7 14 6 15 5 16 4 17 3 18 2 19 1 20
REMARK H PARENT
REMARK INDEX MAP 4 1 6 2 8 3 10 4 12 5 14 6 16 7 18 8 20 9 2 10 1 11 3 12 5 13
REMARK INDEX MAP 7 14 9 15 11 16 13 17 15 18 17 19 19 20
ROOT
ATOM      1  C   UNL     1     -31.761  21.314   7.406  1.00  0.00     0.000 C 
ENDROOT
BRANCH   1   2
ATOM      2  C   UNL     1     -32.736  20.461   6.584  1.00  0.00     0.000 C 
BRANCH   2   3
ATOM      3  C   UNL     1     -33.115  21.115   5.252  1.00  0.00     0.000 C 
BRANCH   3   4
ATOM      4  C   UNL     1     -34.351  20.490   4.596  1.00  0.00     0.000 C 
BRANCH   4   5
ATOM      5  C   UNL     1     -35.680  21.210   4.846  1.00  0.00     0.000 C 
BRANCH   5   6
ATOM      6  C   UNL     1     -36.745  20.405   5.599  1.00  0.00     0.000 C 
BRANCH   6   7
ATOM      7  C   UNL     1     -37.927  21.250   6.082  1.00  0.00     0.006 C 
BRANCH   7   8
ATOM      8  C   UNL     1     -38.440  20.798   7.448  1.00  0.00     0.053 C 
BRANCH   8   9
ATOM      9  C   UNL     1     -39.902  21.091   7.644  1.00  0.00     0.041 C 
ATOM     10  O   UNL     1     -40.383  22.162   7.971  1.00  0.00    -0.550 OA
ATOM     11  O   UNL     1     -40.692  20.030   7.395  1.00  0.00    -0.550 OA
ENDBRANCH   8   9
ENDBRANCH   7   8
ENDBRANCH   6   7
ENDBRANCH   5   6
ENDBRANCH   4   5
ENDBRANCH   3   4
ENDBRANCH   2   3
ENDBRANCH   1   2
BRANCH   1  12
ATOM     12  C   UNL     1     -31.721  22.800   7.029  1.00  0.00     0.000 C 
BRANCH  12  13
ATOM     13  C   UNL     1     -31.865  23.755   8.213  1.00  0.00    -0.000 C 
BRANCH  13  14
ATOM     14  C   UNL     1     -32.978  24.791   8.028  1.00  0.00    -0.000 C 
BRANCH  14  15
ATOM     15  C   UNL     1     -33.900  24.571   6.824  1.00  0.00    -0.000 C 
BRANCH  15  16
ATOM     16  C   UNL     1     -35.156  23.735   7.093  1.00  0.00    -0.000 C 
BRANCH  16  17
ATOM     17  C   UNL     1     -35.344  23.378   8.569  1.00  0.00    -0.000 C 
BRANCH  17  18
ATOM     18  C   UNL     1     -35.272  21.865   8.786  1.00  0.00    -0.000 C 
BRANCH  18  19
ATOM     19  C   UNL     1     -34.394  21.464   9.974  1.00  0.00    -0.003 C 
ATOM     20  C   UNL     1     -34.081  22.618  10.915  1.00  0.00     0.004 C 
ENDBRANCH  18  19
ENDBRANCH  17  18
ENDBRANCH  16  17
ENDBRANCH  15  16
ENDBRANCH  14  15
ENDBRANCH  13  14
ENDBRANCH  12  13
ENDBRANCH   1  12
TORSDOF 16
ENDMDL
MODEL 4
REMARK VINA RESULT:    -5.967      3.077      6.050
REMARK INTER + INTRA:         -14.260
REMARK INTER:                 -12.165
REMARK INTRA:                  -2.094
REMARK UNBOUND:                -2.710
REMARK SMILES CCCCCCCCCCCCCCCCCC(=O)[O-]
REMARK SMILES IDX 10 1 11 2 12 3 13 4 14 5 15 6 16 7 17 8 18 9 19 10 20 11
REMARK SMILES IDX 9 12 8 13 7 14 6 15 5 16 4 17 3 18 2 19 1 20
REMARK H PARENT
REMARK INDEX MAP 4 1 6 2 8 3 10 4 12 5 14 6 16 7 18 8 20 9 2 10 1 11 3 12 5 13
REMARK INDEX MAP 7 14 9 15 11 16 13 17 15 18 17 19 19 20
ROOT
ATOM      1  C   UNL     1     -31.757  24.173   8.314  1.00  0.00     0.000 C 
ENDROOT
BRANCH   1   2
ATOM      2  C   UNL     1     -32.259  22.726   8.222  1.00  0.00     0.000 C 
BRANCH   2   3
ATOM      3  C   UNL     1     -31.503  21.903   7.175  1.00  0.00     0.000 C 
BRANCH   3   4
ATOM      4  C   UNL     1     -32.019  22.110   5.747  1.00  0.00     0.000 C 
BRANCH   4   5
ATOM      5  C   UNL     1     -33.263  21.304   5.358  1.00  0.00     0.000 C 
BRANCH   5   6
ATOM      6  C   UNL     1     -33.046  20.202   4.316  1.00  0.00     0.000 C 
BRANCH   6   7
ATOM      7  C   UNL     1     -32.358  18.954   4.876  1.00  0.00     0.006 C 
BRANCH   7   8
ATOM      8  C   UNL     1     -32.873  18.585   6.265  1.00  0.00     0.053 C 
BRANCH   8   9
ATOM      9  C   UNL     1     -31.762  18.287   7.235  1.00  0.00     0.041 C 
ATOM     10  O   UNL     1     -30.674  17.813   6.958  1.00  0.00    -0.550 OA
ATOM     11  O   UNL     1     -32.063  18.623   8.503  1.00  0.00    -0.550 OA
ENDBRANCH   8   9
ENDBRANCH   7   8
ENDBRANCH   6   7
ENDBRANCH   5   6
ENDBRANCH   4   5
ENDBRANCH   3   4
ENDBRANCH   2   3
ENDBRANCH   1   2
BRANCH   1  12
ATOM     12  C   UNL     1     -32.756  25.238   7.846  1.00  0.00     0.000 C 
BRANCH  12  13
ATOM     13  C   UNL     1     -33.886  24.701   6.970  1.00  0.00    -0.000 C 
BRANCH  13  14
ATOM     14  C   UNL     1     -35.088  24.190   7.771  1.00  0.00    -0.000 C 
BRANCH  14  15
ATOM     15  C   UNL     1     -35.853  23.018   7.149  1.00  0.00    -0.000 C 
BRANCH  15  16
ATOM     16  C   UNL     1     -35.904  21.737   7.987  1.00  0.00    -0.000 C 
BRANCH  16  17
ATOM     17  C   UNL     1     -36.412  20.521   7.209  1.00  0.00    -0.000 C 
BRANCH  17  18
ATOM     18  C   UNL     1     -37.805  20.778   6.629  1.00  0.00    -0.000 C 
BRANCH  18  19
ATOM     19  C   UNL     1     -37.973  20.254   5.201  1.00  0.00    -0.003 C 
ATOM     20  C   UNL     1     -36.811  20.605   4.283  1.00  0.00     0.004 C 
ENDBRANCH  18  19
ENDBRANCH  17  18
ENDBRANCH  16  17
ENDBRANCH  15  16
ENDBRANCH  14  15
ENDBRANCH  13  14
ENDBRANCH  12  13
ENDBRANCH   1  12
TORSDOF 16
ENDMDL
MODEL 5
REMARK VINA RESULT:    -5.963      1.173      3.091
REMARK INTER + INTRA:         -14.251
REMARK INTER:                 -11.403
REMARK INTRA:                  -2.848
REMARK UNBOUND:                -2.710
REMARK SMILES CCCCCCCCCCCCCCCCCC(=O)[O-]
REMARK SMILES IDX 10 1 11 2 12 3 13 4 14 5 15 6 16 7 17 8 18 9 19 10 20 11
REMARK SMILES IDX 9 12 8 13 7 14 6 15 5 16 4 17 3 18 2 19 1 20
REMARK H PARENT
REMARK INDEX MAP 4 1 6 2 8 3 10 4 12 5 14 6 16 7 18 8 20 9 2 10 1 11 3 12 5 13
REMARK INDEX MAP 7 14 9 15 11 16 13 17 15 18 17 19 19 20
ROOT
ATOM      1  C   UNL     1     -32.166  19.433   6.675  1.00  0.00     0.000 C 
ENDROOT
BRANCH   1   2
ATOM      2  C   UNL     1     -32.155  20.967   6.713  1.00  0.00     0.000 C 
BRANCH   2   3
ATOM      3  C   UNL     1     -32.776  21.594   5.460  1.00  0.00     0.000 C 
BRANCH   3   4
ATOM      4  C   UNL     1     -33.454  20.575   4.539  1.00  0.00     0.000 C 
BRANCH   4   5
ATOM      5  C   UNL     1     -34.986  20.572   4.554  1.00  0.00     0.000 C 
BRANCH   5   6
ATOM      6  C   UNL     1     -35.647  21.550   5.530  1.00  0.00     0.000 C 
BRANCH   6   7
ATOM      7  C   UNL     1     -36.502  20.867   6.602  1.00  0.00     0.006 C 
BRANCH   7   8
ATOM      8  C   UNL     1     -37.590  21.789   7.148  1.00  0.00     0.053 C 
BRANCH   8   9
ATOM      9  C   UNL     1     -38.974  21.346   6.760  1.00  0.00     0.041 C 
ATOM     10  O   UNL     1     -40.004  21.973   6.934  1.00  0.00    -0.550 OA
ATOM     11  O   UNL     1     -38.994  20.147   6.150  1.00  0.00    -0.550 OA
ENDBRANCH   8   9
ENDBRANCH   7   8
ENDBRANCH   6   7
ENDBRANCH   5   6
ENDBRANCH   4   5
ENDBRANCH   3   4
ENDBRANCH   2   3
ENDBRANCH   1   2
BRANCH   1  12
ATOM     12  C   UNL     1     -32.615  18.754   7.975  1.00  0.00     0.000 C 
BRANCH  12  13
ATOM     13  C   UNL     1     -34.037  19.102   8.409  1.00  0.00    -0.000 C 
BRANCH  13  14
ATOM     14  C   UNL     1     -34.119  19.678   9.826  1.00  0.00    -0.000 C 
BRANCH  14  15
ATOM     15  C   UNL     1     -34.971  20.942   9.984  1.00  0.00    -0.000 C 
BRANCH  15  16
ATOM     16  C   UNL     1     -34.234  22.179  10.507  1.00  0.00    -0.000 C 
BRANCH  16  17
ATOM     17  C   UNL     1     -33.538  22.982   9.406  1.00  0.00    -0.000 C 
BRANCH  17  18
ATOM     18  C   UNL     1     -34.546  23.501   8.378  1.00  0.00    -0.000 C 
BRANCH  18  19
ATOM     19  C   UNL     1     -33.921  24.424   7.328  1.00  0.00    -0.003 C 
ATOM     20  C   UNL     1     -32.590  25.021   7.760  1.00  0.00     0.004 C 
ENDBRANCH  18  19
ENDBRANCH  17  18
ENDBRANCH  16  17
ENDBRANCH  15  16
ENDBRANCH  14  15
ENDBRANCH  13  14
ENDBRANCH  12  13
ENDBRANCH   1  12
TORSDOF 16
ENDMDL
MODEL 6
REMARK VINA RESULT:    -5.916      2.503      5.431
REMARK INTER + INTRA:         -14.161
REMARK INTER:                 -11.705
REMARK INTRA:                  -2.455
REMARK UNBOUND:                -2.710
REMARK SMILES CCCCCCCCCCCCCCCCCC(=O)[O-]
REMARK SMILES IDX 10 1 11 2 12 3 13 4 14 5 15 6 16 7 17 8 18 9 19 10 20 11
REMARK SMILES IDX 9 12 8 13 7 14 6 15 5 16 4 17 3 18 2 19 1 20
REMARK H PARENT
REMARK INDEX MAP 4 1 6 2 8 3 10 4 12 5 14 6 16 7 18 8 20 9 2 10 1 11 3 12 5 13
REMARK INDEX MAP 7 14 9 15 11 16 13 17 15 18 17 19 19 20
ROOT
ATOM      1  C   UNL     1     -32.639  23.059   9.100  1.00  0.00     0.000 C 
ENDROOT
BRANCH   1   2
ATOM      2  C   UNL     1     -33.551  22.891  10.322  1.00  0.00     0.000 C 
BRANCH   2   3
ATOM      3  C   UNL     1     -34.680  21.883  10.083  1.00  0.00     0.000 C 
BRANCH   3   4
ATOM      4  C   UNL     1     -34.363  20.477  10.605  1.00  0.00     0.000 C 
BRANCH   4   5
ATOM      5  C   UNL     1     -33.988  19.436   9.546  1.00  0.00     0.000 C 
BRANCH   5   6
ATOM      6  C   UNL     1     -34.308  19.813   8.096  1.00  0.00     0.000 C 
BRANCH   6   7
ATOM      7  C   UNL     1     -33.071  19.917   7.200  1.00  0.00     0.006 C 
BRANCH   7   8
ATOM      8  C   UNL     1     -33.400  19.672   5.729  1.00  0.00     0.053 C 
BRANCH   8   9
ATOM      9  C   UNL     1     -33.182  20.891   4.875  1.00  0.00     0.041 C 
ATOM     10  O   UNL     1     -33.790  21.173   3.857  1.00  0.00    -0.550 OA
ATOM     11  O   UNL     1     -32.228  21.709   5.355  1.00  0.00    -0.550 OA
ENDBRANCH   8   9
ENDBRANCH   7   8
ENDBRANCH   6   7
ENDBRANCH   5   6
ENDBRANCH   4   5
ENDBRANCH   3   4
ENDBRANCH   2   3
ENDBRANCH   1   2
BRANCH   1  12
ATOM     12  C   UNL     1     -32.585  24.477   8.519  1.00  0.00     0.000 C 
BRANCH  12  13
ATOM     13  C   UNL     1     -33.167  24.604   7.112  1.00  0.00    -0.000 C 
BRANCH  13  14
ATOM     14  C   UNL     1     -34.426  23.758   6.895  1.00  0.00    -0.000 C 
BRANCH  14  15
ATOM     15  C   UNL     1     -35.690  24.250   7.607  1.00  0.00    -0.000 C 
BRANCH  15  16
ATOM     16  C   UNL     1     -36.840  23.241   7.692  1.00  0.00    -0.000 C 
BRANCH  16  17
ATOM     17  C   UNL     1     -36.625  21.999   6.824  1.00  0.00    -0.000 C 
BRANCH  17  18
ATOM     18  C   UNL     1     -37.802  21.028   6.946  1.00  0.00    -0.000 C 
BRANCH  18  19
ATOM     19  C   UNL     1     -38.174  20.357   5.621  1.00  0.00    -0.003 C 
ATOM     20  C   UNL     1     -37.082  20.449   4.566  1.00  0.00     0.004 C 
ENDBRANCH  18  19
ENDBRANCH  17  18
ENDBRANCH  16  17
ENDBRANCH  15  16
ENDBRANCH  14  15
ENDBRANCH  13  14
ENDBRANCH  12  13
ENDBRANCH   1  12
TORSDOF 16
ENDMDL
MODEL 7
REMARK VINA RESULT:    -5.909      0.994      3.728
REMARK INTER + INTRA:         -14.146
REMARK INTER:                 -11.553
REMARK INTRA:                  -2.594
REMARK UNBOUND:                -2.710
REMARK SMILES CCCCCCCCCCCCCCCCCC(=O)[O-]
REMARK SMILES IDX 10 1 11 2 12 3 13 4 14 5 15 6 16 7 17 8 18 9 19 10 20 11
REMARK SMILES IDX 9 12 8 13 7 14 6 15 5 16 4 17 3 18 2 19 1 20
REMARK H PARENT
REMARK INDEX MAP 4 1 6 2 8 3 10 4 12 5 14 6 16 7 18 8 20 9 2 10 1 11 3 12 5 13
REMARK INDEX MAP 7 14 9 15 11 16 13 17 15 18 17 19 19 20
ROOT
ATOM      1  C   UNL     1     -32.191  24.593   8.686  1.00  0.00     0.000 C 
ENDROOT
BRANCH   1   2
ATOM      2  C   UNL     1     -32.985  25.102   7.476  1.00  0.00     0.000 C 
BRANCH   2   3
ATOM      3  C   UNL     1     -33.974  24.064   6.937  1.00  0.00     0.000 C 
BRANCH   3   4
ATOM      4  C   UNL     1     -35.395  24.233   7.485  1.00  0.00     0.000 C 
BRANCH   4   5
ATOM      5  C   UNL     1     -36.302  23.001   7.392  1.00  0.00     0.000 C 
BRANCH   5   6
ATOM      6  C   UNL     1     -35.942  21.987   6.302  1.00  0.00     0.000 C 
BRANCH   6   7
ATOM      7  C   UNL     1     -37.079  21.019   5.964  1.00  0.00     0.006 C 
BRANCH   7   8
ATOM      8  C   UNL     1     -37.904  20.645   7.194  1.00  0.00     0.053 C 
BRANCH   8   9
ATOM      9  C   UNL     1     -39.329  20.304   6.855  1.00  0.00     0.041 C 
ATOM     10  O   UNL     1     -39.760  20.038   5.746  1.00  0.00    -0.550 OA
ATOM     11  O   UNL     1     -40.139  20.288   7.929  1.00  0.00    -0.550 OA
ENDBRANCH   8   9
ENDBRANCH   7   8
ENDBRANCH   6   7
ENDBRANCH   5   6
ENDBRANCH   4   5
ENDBRANCH   3   4
ENDBRANCH   2   3
ENDBRANCH   1   2
BRANCH   1  12
ATOM     12  C   UNL     1     -32.519  23.160   9.122  1.00  0.00     0.000 C 
BRANCH  12  13
ATOM     13  C   UNL     1     -33.321  23.063  10.418  1.00  0.00    -0.000 C 
BRANCH  13  14
ATOM     14  C   UNL     1     -34.556  22.164  10.305  1.00  0.00    -0.000 C 
BRANCH  14  15
ATOM     15  C   UNL     1     -34.278  20.661  10.199  1.00  0.00    -0.000 C 
BRANCH  15  16
ATOM     16  C   UNL     1     -34.644  20.010   8.861  1.00  0.00    -0.000 C 
BRANCH  16  17
ATOM     17  C   UNL     1     -33.554  19.083   8.318  1.00  0.00    -0.000 C 
BRANCH  17  18
ATOM     18  C   UNL     1     -33.325  19.314   6.822  1.00  0.00    -0.000 C 
BRANCH  18  19
ATOM     19  C   UNL     1     -32.488  20.560   6.523  1.00  0.00    -0.003 C 
ATOM     20  C   UNL     1     -32.654  21.076   5.101  1.00  0.00     0.004 C 
ENDBRANCH  18  19
ENDBRANCH  17  18
ENDBRANCH  16  17
ENDBRANCH  15  16
ENDBRANCH  14  15
ENDBRANCH  13  14
ENDBRANCH  12  13
ENDBRANCH   1  12
TORSDOF 16
ENDMDL
MODEL 8
REMARK VINA RESULT:    -5.885      3.198      5.532
REMARK INTER + INTRA:         -14.100
REMARK INTER:                 -12.164
REMARK INTRA:                  -1.936
REMARK UNBOUND:                -2.710
REMARK SMILES CCCCCCCCCCCCCCCCCC(=O)[O-]
REMARK SMILES IDX 10 1 11 2 12 3 13 4 14 5 15 6 16 7 17 8 18 9 19 10 20 11
REMARK SMILES IDX 9 12 8 13 7 14 6 15 5 16 4 17 3 18 2 19 1 20
REMARK H PARENT
REMARK INDEX MAP 4 1 6 2 8 3 10 4 12 5 14 6 16 7 18 8 20 9 2 10 1 11 3 12 5 13
REMARK INDEX MAP 7 14 9 15 11 16 13 17 15 18 17 19 19 20
ROOT
ATOM      1  C   UNL     1     -35.749  24.059   7.506  1.00  0.00     0.000 C 
ENDROOT
BRANCH   1   2
ATOM      2  C   UNL     1     -36.454  22.702   7.624  1.00  0.00     0.000 C 
BRANCH   2   3
ATOM      3  C   UNL     1     -35.627  21.553   7.040  1.00  0.00     0.000 C 
BRANCH   3   4
ATOM      4  C   UNL     1     -36.130  21.072   5.674  1.00  0.00     0.000 C 
BRANCH   4   5
ATOM      5  C   UNL     1     -35.054  20.823   4.612  1.00  0.00     0.000 C 
BRANCH   5   6
ATOM      6  C   UNL     1     -33.604  20.980   5.080  1.00  0.00     0.000 C 
BRANCH   6   7
ATOM      7  C   UNL     1     -32.826  19.662   5.123  1.00  0.00     0.006 C 
BRANCH   7   8
ATOM      8  C   UNL     1     -33.114  18.863   6.393  1.00  0.00     0.053 C 
BRANCH   8   9
ATOM      9  C   UNL     1     -31.860  18.406   7.087  1.00  0.00     0.041 C 
ATOM     10  O   UNL     1     -31.610  18.531   8.274  1.00  0.00    -0.550 OA
ATOM     11  O   UNL     1     -30.991  17.793   6.263  1.00  0.00    -0.550 OA
ENDBRANCH   8   9
ENDBRANCH   7   8
ENDBRANCH   6   7
ENDBRANCH   5   6
ENDBRANCH   4   5
ENDBRANCH   3   4
ENDBRANCH   2   3
ENDBRANCH   1   2
BRANCH   1  12
ATOM     12  C   UNL     1     -34.430  24.040   6.724  1.00  0.00     0.000 C 
BRANCH  12  13
ATOM     13  C   UNL     1     -33.454  25.152   7.107  1.00  0.00    -0.000 C 
BRANCH  13  14
ATOM     14  C   UNL     1     -32.089  24.633   7.568  1.00  0.00    -0.000 C 
BRANCH  14  15
ATOM     15  C   UNL     1     -31.986  24.252   9.048  1.00  0.00    -0.000 C 
BRANCH  15  16
ATOM     16  C   UNL     1     -32.624  22.915   9.437  1.00  0.00    -0.000 C 
BRANCH  16  17
ATOM     17  C   UNL     1     -33.884  23.068  10.292  1.00  0.00    -0.000 C 
BRANCH  17  18
ATOM     18  C   UNL     1     -34.035  21.900  11.270  1.00  0.00    -0.000 C 
BRANCH  18  19
ATOM     19  C   UNL     1     -34.738  20.686  10.659  1.00  0.00    -0.003 C 
ATOM     20  C   UNL     1     -34.297  19.361  11.262  1.00  0.00     0.004 C 
ENDBRANCH  18  19
ENDBRANCH  17  18
ENDBRANCH  16  17
ENDBRANCH  15  16
ENDBRANCH  14  15
ENDBRANCH  13  14
ENDBRANCH  12  13
ENDBRANCH   1  12
TORSDOF 16
ENDMDL
MODEL 9
REMARK VINA RESULT:    -5.871      2.658      5.437
REMARK INTER + INTRA:         -14.073
REMARK INTER:                 -12.036
REMARK INTRA:                  -2.037
REMARK UNBOUND:                -2.710
REMARK SMILES CCCCCCCCCCCCCCCCCC(=O)[O-]
REMARK SMILES IDX 10 1 11 2 12 3 13 4 14 5 15 6 16 7 17 8 18 9 19 10 20 11
REMARK SMILES IDX 9 12 8 13 7 14 6 15 5 16 4 17 3 18 2 19 1 20
REMARK H PARENT
REMARK INDEX MAP 4 1 6 2 8 3 10 4 12 5 14 6 16 7 18 8 20 9 2 10 1 11 3 12 5 13
REMARK INDEX MAP 7 14 9 15 11 16 13 17 15 18 17 19 19 20
ROOT
ATOM      1  C   UNL     1     -34.660  24.014   6.743  1.00  0.00     0.000 C 
ENDROOT
BRANCH   1   2
ATOM      2  C   UNL     1     -35.808  23.937   7.757  1.00  0.00     0.000 C 
BRANCH   2   3
ATOM      3  C   UNL     1     -36.738  22.745   7.508  1.00  0.00     0.000 C 
BRANCH   3   4
ATOM      4  C   UNL     1     -36.105  21.646   6.648  1.00  0.00     0.000 C 
BRANCH   4   5
ATOM      5  C   UNL     1     -35.373  20.536   7.409  1.00  0.00     0.000 C 
BRANCH   5   6
ATOM      6  C   UNL     1     -33.861  20.450   7.174  1.00  0.00     0.000 C 
BRANCH   6   7
ATOM      7  C   UNL     1     -33.437  19.236   6.342  1.00  0.00     0.006 C 
BRANCH   7   8
ATOM      8  C   UNL     1     -32.649  19.637   5.097  1.00  0.00     0.053 C 
BRANCH   8   9
ATOM      9  C   UNL     1     -33.114  20.942   4.512  1.00  0.00     0.041 C 
ATOM     10  O   UNL     1     -34.071  21.099   3.774  1.00  0.00    -0.550 OA
ATOM     11  O   UNL     1     -32.368  21.992   4.901  1.00  0.00    -0.550 OA
ENDBRANCH   8   9
ENDBRANCH   7   8
ENDBRANCH   6   7
ENDBRANCH   5   6
ENDBRANCH   4   5
ENDBRANCH   3   4
ENDBRANCH   2   3
ENDBRANCH   1   2
BRANCH   1  12
ATOM     12  C   UNL     1     -33.528  24.980   7.116  1.00  0.00     0.000 C 
BRANCH  12  13
ATOM     13  C   UNL     1     -32.227  24.296   7.531  1.00  0.00    -0.000 C 
BRANCH  13  14
ATOM     14  C   UNL     1     -32.130  24.030   9.036  1.00  0.00    -0.000 C 
BRANCH  14  15
ATOM     15  C   UNL     1     -32.832  22.763   9.535  1.00  0.00    -0.000 C 
BRANCH  15  16
ATOM     16  C   UNL     1     -33.944  22.980  10.566  1.00  0.00    -0.000 C 
BRANCH  16  17
ATOM     17  C   UNL     1     -34.088  21.824  11.558  1.00  0.00    -0.000 C 
BRANCH  17  18
ATOM     18  C   UNL     1     -34.821  20.639  10.925  1.00  0.00    -0.000 C 
BRANCH  18  19
ATOM     19  C   UNL     1     -34.085  19.308  11.098  1.00  0.00    -0.003 C 
ATOM     20  C   UNL     1     -34.442  18.579  12.384  1.00  0.00     0.004 C 
ENDBRANCH  18  19
ENDBRANCH  17  18
ENDBRANCH  16  17
ENDBRANCH  15  16
ENDBRANCH  14  15
ENDBRANCH  13  14
ENDBRANCH  12  13
ENDBRANCH   1  12
TORSDOF 16
ENDMDL
MODEL 10
REMARK VINA RESULT:    -5.852      2.661      5.674
REMARK INTER + INTRA:         -14.036
REMARK INTER:                 -11.854
REMARK INTRA:                  -2.182
REMARK UNBOUND:                -2.710
REMARK SMILES CCCCCCCCCCCCCCCCCC(=O)[O-]
REMARK SMILES IDX 10 1 11 2 12 3 13 4 14 5 15 6 16 7 17 8 18 9 19 10 20 11
REMARK SMILES IDX 9 12 8 13 7 14 6 15 5 16 4 17 3 18 2 19 1 20
REMARK H PARENT
REMARK INDEX MAP 4 1 6 2 8 3 10 4 12 5 14 6 16 7 18 8 20 9 2 10 1 11 3 12 5 13
REMARK INDEX MAP 7 14 9 15 11 16 13 17 15 18 17 19 19 20
ROOT
ATOM      1  C   UNL     1     -32.064  24.245   8.932  1.00  0.00     0.000 C 
ENDROOT
BRANCH   1   2
ATOM      2  C   UNL     1     -32.789  22.927   9.231  1.00  0.00     0.000 C 
BRANCH   2   3
ATOM      3  C   UNL     1     -33.614  22.985  10.521  1.00  0.00     0.000 C 
BRANCH   3   4
ATOM      4  C   UNL     1     -34.343  21.675  10.838  1.00  0.00     0.000 C 
BRANCH   4   5
ATOM      5  C   UNL     1     -34.735  20.815   9.632  1.00  0.00     0.000 C 
BRANCH   5   6
ATOM      6  C   UNL     1     -33.957  19.507   9.462  1.00  0.00     0.000 C 
BRANCH   6   7
ATOM      7  C   UNL     1     -33.869  19.028   8.010  1.00  0.00     0.006 C 
BRANCH   7   8
ATOM      8  C   UNL     1     -32.779  19.756   7.227  1.00  0.00     0.053 C 
BRANCH   8   9
ATOM      9  C   UNL     1     -32.306  18.977   6.031  1.00  0.00     0.041 C 
ATOM     10  O   UNL     1     -31.584  17.995   6.051  1.00  0.00    -0.550 OA
ATOM     11  O   UNL     1     -32.783  19.454   4.867  1.00  0.00    -0.550 OA
ENDBRANCH   8   9
ENDBRANCH   7   8
ENDBRANCH   6   7
ENDBRANCH   5   6
ENDBRANCH   4   5
ENDBRANCH   3   4
ENDBRANCH   2   3
ENDBRANCH   1   2
BRANCH   1  12
ATOM     12  C   UNL     1     -32.503  24.950   7.643  1.00  0.00     0.000 C 
BRANCH  12  13
ATOM     13  C   UNL     1     -33.480  24.146   6.786  1.00  0.00    -0.000 C 
BRANCH  13  14
ATOM     14  C   UNL     1     -34.942  24.313   7.210  1.00  0.00    -0.000 C 
BRANCH  14  15
ATOM     15  C   UNL     1     -35.813  23.056   7.106  1.00  0.00    -0.000 C 
BRANCH  15  16
ATOM     16  C   UNL     1     -35.441  22.080   5.986  1.00  0.00    -0.000 C 
BRANCH  16  17
ATOM     17  C   UNL     1     -36.269  20.793   6.000  1.00  0.00    -0.000 C 
BRANCH  17  18
ATOM     18  C   UNL     1     -37.368  20.855   7.065  1.00  0.00    -0.000 C 
BRANCH  18  19
ATOM     19  C   UNL     1     -38.503  19.858   6.822  1.00  0.00    -0.003 C 
ATOM     20  C   UNL     1     -39.787  20.206   7.561  1.00  0.00     0.004 C 
ENDBRANCH  18  19
ENDBRANCH  17  18
ENDBRANCH  16  17
ENDBRANCH  15  16
ENDBRANCH  14  15
ENDBRANCH  13  14
ENDBRANCH  12  13
ENDBRANCH   1  12
TORSDOF 16
ENDMDL
MODEL 11
REMARK VINA RESULT:    -5.843      2.975      5.733
REMARK INTER + INTRA:         -14.018
REMARK INTER:                 -11.852
REMARK INTRA:                  -2.167
REMARK UNBOUND:                -2.710
REMARK SMILES CCCCCCCCCCCCCCCCCC(=O)[O-]
REMARK SMILES IDX 10 1 11 2 12 3 13 4 14 5 15 6 16 7 17 8 18 9 19 10 20 11
REMARK SMILES IDX 9 12 8 13 7 14 6 15 5 16 4 17 3 18 2 19 1 20
REMARK H PARENT
REMARK INDEX MAP 4 1 6 2 8 3 10 4 12 5 14 6 16 7 18 8 20 9 2 10 1 11 3 12 5 13
REMARK INDEX MAP 7 14 9 15 11 16 13 17 15 18 17 19 19 20
ROOT
ATOM      1  C   UNL     1     -32.465  23.211   9.288  1.00  0.00     0.000 C 
ENDROOT
BRANCH   1   2
ATOM      2  C   UNL     1     -32.027  24.646   8.971  1.00  0.00     0.000 C 
BRANCH   2   3
ATOM      3  C   UNL     1     -32.794  25.253   7.793  1.00  0.00     0.000 C 
BRANCH   3   4
ATOM      4  C   UNL     1     -33.200  24.223   6.733  1.00  0.00     0.000 C 
BRANCH   4   5
ATOM      5  C   UNL     1     -32.054  23.444   6.081  1.00  0.00     0.000 C 
BRANCH   5   6
ATOM      6  C   UNL     1     -32.367  21.995   5.691  1.00  0.00     0.000 C 
BRANCH   6   7
ATOM      7  C   UNL     1     -31.962  20.971   6.755  1.00  0.00     0.006 C 
BRANCH   7   8
ATOM      8  C   UNL     1     -32.470  19.568   6.430  1.00  0.00     0.053 C 
BRANCH   8   9
ATOM      9  C   UNL     1     -31.715  18.494   7.162  1.00  0.00     0.041 C 
ATOM     10  O   UNL     1     -31.742  18.288   8.364  1.00  0.00    -0.550 OA
ATOM     11  O   UNL     1     -30.983  17.713   6.348  1.00  0.00    -0.550 OA
ENDBRANCH   8   9
ENDBRANCH   7   8
ENDBRANCH   6   7
ENDBRANCH   5   6
ENDBRANCH   4   5
ENDBRANCH   3   4
ENDBRANCH   2   3
ENDBRANCH   1   2
BRANCH   1  12
ATOM     12  C   UNL     1     -33.563  23.086  10.352  1.00  0.00     0.000 C 
BRANCH  12  13
ATOM     13  C   UNL     1     -34.865  22.469   9.844  1.00  0.00    -0.000 C 
BRANCH  13  14
ATOM     14  C   UNL     1     -34.730  20.992   9.460  1.00  0.00    -0.000 C 
BRANCH  14  15
ATOM     15  C   UNL     1     -35.436  20.574   8.165  1.00  0.00    -0.000 C 
BRANCH  15  16
ATOM     16  C   UNL     1     -35.853  21.719   7.236  1.00  0.00    -0.000 C 
BRANCH  16  17
ATOM     17  C   UNL     1     -36.161  21.261   5.809  1.00  0.00    -0.000 C 
BRANCH  17  18
ATOM     18  C   UNL     1     -37.564  20.655   5.713  1.00  0.00    -0.000 C 
BRANCH  18  19
ATOM     19  C   UNL     1     -38.566  21.292   6.678  1.00  0.00    -0.003 C 
ATOM     20  C   UNL     1     -39.293  20.283   7.554  1.00  0.00     0.004 C 
ENDBRANCH  18  19
ENDBRANCH  17  18
ENDBRANCH  16  17
ENDBRANCH  15  16
ENDBRANCH  14  15
ENDBRANCH  13  14
ENDBRANCH  12  13
ENDBRANCH   1  12
TORSDOF 16
ENDMDL
MODEL 12
REMARK VINA RESULT:    -5.840      2.417      5.224
REMARK INTER + INTRA:         -14.014
REMARK INTER:                 -11.896
REMARK INTRA:                  -2.117
REMARK UNBOUND:                -2.710
REMARK SMILES CCCCCCCCCCCCCCCCCC(=O)[O-]
REMARK SMILES IDX 10 1 11 2 12 3 13 4 14 5 15 6 16 7 17 8 18 9 19 10 20 11
REMARK SMILES IDX 9 12 8 13 7 14 6 15 5 16 4 17 3 18 2 19 1 20
REMARK H PARENT
REMARK INDEX MAP 4 1 6 2 8 3 10 4 12 5 14 6 16 7 18 8 20 9 2 10 1 11 3 12 5 13
REMARK INDEX MAP 7 14 9 15 11 16 13 17 15 18 17 19 19 20
ROOT
ATOM      1  C   UNL     1     -34.683  21.747  10.318  1.00  0.00     0.000 C 
ENDROOT
BRANCH   1   2
ATOM      2  C   UNL     1     -34.708  20.555  11.284  1.00  0.00     0.000 C 
BRANCH   2   3
ATOM      3  C   UNL     1     -34.087  19.291  10.680  1.00  0.00     0.000 C 
BRANCH   3   4
ATOM      4  C   UNL     1     -34.011  19.321   9.149  1.00  0.00     0.000 C 
BRANCH   4   5
ATOM      5  C   UNL     1     -32.618  19.120   8.543  1.00  0.00     0.000 C 
BRANCH   5   6
ATOM      6  C   UNL     1     -32.567  18.324   7.235  1.00  0.00     0.000 C 
BRANCH   6   7
ATOM      7  C   UNL     1     -32.478  19.202   5.984  1.00  0.00     0.006 C 
BRANCH   7   8
ATOM      8  C   UNL     1     -33.796  19.911   5.681  1.00  0.00     0.053 C 
BRANCH   8   9
ATOM      9  C   UNL     1     -33.644  21.010   4.666  1.00  0.00     0.041 C 
ATOM     10  O   UNL     1     -34.465  21.329   3.824  1.00  0.00    -0.550 OA
ATOM     11  O   UNL     1     -32.478  21.672   4.774  1.00  0.00    -0.550 OA
ENDBRANCH   8   9
ENDBRANCH   7   8
ENDBRANCH   6   7
ENDBRANCH   5   6
ENDBRANCH   4   5
ENDBRANCH   3   4
ENDBRANCH   2   3
ENDBRANCH   1   2
BRANCH   1  12
ATOM     12  C   UNL     1     -33.660  22.838  10.660  1.00  0.00     0.000 C 
BRANCH  12  13
ATOM     13  C   UNL     1     -32.887  23.376   9.457  1.00  0.00    -0.000 C 
BRANCH  13  14
ATOM     14  C   UNL     1     -33.354  22.791   8.121  1.00  0.00    -0.000 C 
BRANCH  14  15
ATOM     15  C   UNL     1     -34.203  23.720   7.247  1.00  0.00    -0.000 C 
BRANCH  15  16
ATOM     16  C   UNL     1     -35.721  23.576   7.403  1.00  0.00    -0.000 C 
BRANCH  16  17
ATOM     17  C   UNL     1     -36.243  22.193   7.009  1.00  0.00    -0.000 C 
BRANCH  17  18
ATOM     18  C   UNL     1     -37.741  22.065   7.297  1.00  0.00    -0.000 C 
BRANCH  18  19
ATOM     19  C   UNL     1     -38.265  20.633   7.158  1.00  0.00    -0.003 C 
ATOM     20  C   UNL     1     -39.676  20.447   7.696  1.00  0.00     0.004 C 
ENDBRANCH  18  19
ENDBRANCH  17  18
ENDBRANCH  16  17
ENDBRANCH  15  16
ENDBRANCH  14  15
ENDBRANCH  13  14
ENDBRANCH  12  13
ENDBRANCH   1  12
TORSDOF 16
ENDMDL
MODEL 13
REMARK VINA RESULT:    -5.832      0.892      3.451
REMARK INTER + INTRA:         -13.997
REMARK INTER:                 -11.872
REMARK INTRA:                  -2.126
REMARK UNBOUND:                -2.710
REMARK SMILES CCCCCCCCCCCCCCCCCC(=O)[O-]
REMARK SMILES IDX 10 1 11 2 12 3 13 4 14 5 15 6 16 7 17 8 18 9 19 10 20 11
REMARK SMILES IDX 9 12 8 13 7 14 6 15 5 16 4 17 3 18 2 19 1 20
REMARK H PARENT
REMARK INDEX MAP 4 1 6 2 8 3 10 4 12 5 14 6 16 7 18 8 20 9 2 10 1 11 3 12 5 13
REMARK INDEX MAP 7 14 9 15 11 16 13 17 15 18 17 19 19 20
ROOT
ATOM      1  C   UNL     1     -31.870  24.112   8.252  1.00  0.00     0.000 C 
ENDROOT
BRANCH   1   2
ATOM      2  C   UNL     1     -32.948  25.002   7.621  1.00  0.00     0.000 C 
BRANCH   2   3
ATOM      3  C   UNL     1     -34.033  24.196   6.899  1.00  0.00     0.000 C 
BRANCH   3   4
ATOM      4  C   UNL     1     -35.358  24.134   7.666  1.00  0.00     0.000 C 
BRANCH   4   5
ATOM      5  C   UNL     1     -36.064  22.774   7.678  1.00  0.00     0.000 C 
BRANCH   5   6
ATOM      6  C   UNL     1     -35.947  21.949   6.393  1.00  0.00     0.000 C 
BRANCH   6   7
ATOM      7  C   UNL     1     -37.009  20.853   6.267  1.00  0.00     0.006 C 
BRANCH   7   8
ATOM      8  C   UNL     1     -38.194  21.087   7.202  1.00  0.00     0.053 C 
BRANCH   8   9
ATOM      9  C   UNL     1     -39.466  20.466   6.693  1.00  0.00     0.041 C 
ATOM     10  O   UNL     1     -39.689  20.125   5.544  1.00  0.00    -0.550 OA
ATOM     11  O   UNL     1     -40.387  20.281   7.656  1.00  0.00    -0.550 OA
ENDBRANCH   8   9
ENDBRANCH   7   8
ENDBRANCH   6   7
ENDBRANCH   5   6
ENDBRANCH   4   5
ENDBRANCH   3   4
ENDBRANCH   2   3
ENDBRANCH   1   2
BRANCH   1  12
ATOM     12  C   UNL     1     -32.125  22.604   8.141  1.00  0.00     0.000 C 
BRANCH  12  13
ATOM     13  C   UNL     1     -31.608  21.970   6.851  1.00  0.00    -0.000 C 
BRANCH  13  14
ATOM     14  C   UNL     1     -32.319  20.663   6.486  1.00  0.00    -0.000 C 
BRANCH  14  15
ATOM     15  C   UNL     1     -32.179  19.524   7.501  1.00  0.00    -0.000 C 
BRANCH  15  16
ATOM     16  C   UNL     1     -33.491  18.892   7.976  1.00  0.00    -0.000 C 
BRANCH  16  17
ATOM     17  C   UNL     1     -34.332  19.823   8.853  1.00  0.00    -0.000 C 
BRANCH  17  18
ATOM     18  C   UNL     1     -34.035  19.601  10.339  1.00  0.00    -0.000 C 
BRANCH  18  19
ATOM     19  C   UNL     1     -34.686  20.645  11.249  1.00  0.00    -0.003 C 
ATOM     20  C   UNL     1     -34.297  22.076  10.909  1.00  0.00     0.004 C 
ENDBRANCH  18  19
ENDBRANCH  17  18
ENDBRANCH  16  17
ENDBRANCH  15  16
ENDBRANCH  14  15
ENDBRANCH  13  14
ENDBRANCH  12  13
ENDBRANCH   1  12
TORSDOF 16
ENDMDL
MODEL 14
REMARK VINA RESULT:    -5.816      1.422      3.538
REMARK INTER + INTRA:         -13.967
REMARK INTER:                 -11.559
REMARK INTRA:                  -2.408
REMARK UNBOUND:                -2.710
REMARK SMILES CCCCCCCCCCCCCCCCCC(=O)[O-]
REMARK SMILES IDX 10 1 11 2 12 3 13 4 14 5 15 6 16 7 17 8 18 9 19 10 20 11
REMARK SMILES IDX 9 12 8 13 7 14 6 15 5 16 4 17 3 18 2 19 1 20
REMARK H PARENT
REMARK INDEX MAP 4 1 6 2 8 3 10 4 12 5 14 6 16 7 18 8 20 9 2 10 1 11 3 12 5 13
REMARK INDEX MAP 7 14 9 15 11 16 13 17 15 18 17 19 19 20
ROOT
ATOM      1  C   UNL     1     -31.695  18.822   6.896  1.00  0.00     0.000 C 
ENDROOT
BRANCH   1   2
ATOM      2  C   UNL     1     -32.720  18.533   5.791  1.00  0.00     0.000 C 
BRANCH   2   3
ATOM      3  C   UNL     1     -32.407  19.273   4.487  1.00  0.00     0.000 C 
BRANCH   3   4
ATOM      4  C   UNL     1     -33.374  20.424   4.190  1.00  0.00     0.000 C 
BRANCH   4   5
ATOM      5  C   UNL     1     -34.588  20.537   5.119  1.00  0.00     0.000 C 
BRANCH   5   6
ATOM      6  C   UNL     1     -35.818  21.235   4.529  1.00  0.00     0.000 C 
BRANCH   6   7
ATOM      7  C   UNL     1     -37.106  20.416   4.651  1.00  0.00     0.006 C 
BRANCH   7   8
ATOM      8  C   UNL     1     -37.852  20.703   5.953  1.00  0.00     0.053 C 
BRANCH   8   9
ATOM      9  C   UNL     1     -39.306  20.326   5.884  1.00  0.00     0.041 C 
ATOM     10  O   UNL     1     -39.926  20.038   4.875  1.00  0.00    -0.550 OA
ATOM     11  O   UNL     1     -39.905  20.305   7.088  1.00  0.00    -0.550 OA
ENDBRANCH   8   9
ENDBRANCH   7   8
ENDBRANCH   6   7
ENDBRANCH   5   6
ENDBRANCH   4   5
ENDBRANCH   3   4
ENDBRANCH   2   3
ENDBRANCH   1   2
BRANCH   1  12
ATOM     12  C   UNL     1     -31.988  20.065   7.745  1.00  0.00     0.000 C 
BRANCH  12  13
ATOM     13  C   UNL     1     -31.379  21.357   7.202  1.00  0.00    -0.000 C 
BRANCH  13  14
ATOM     14  C   UNL     1     -31.961  22.621   7.842  1.00  0.00    -0.000 C 
BRANCH  14  15
ATOM     15  C   UNL     1     -32.309  23.757   6.874  1.00  0.00    -0.000 C 
BRANCH  15  16
ATOM     16  C   UNL     1     -33.575  24.552   7.210  1.00  0.00    -0.000 C 
BRANCH  16  17
ATOM     17  C   UNL     1     -34.867  23.773   6.956  1.00  0.00    -0.000 C 
BRANCH  17  18
ATOM     18  C   UNL     1     -35.509  23.321   8.270  1.00  0.00    -0.000 C 
BRANCH  18  19
ATOM     19  C   UNL     1     -35.363  21.820   8.531  1.00  0.00    -0.003 C 
ATOM     20  C   UNL     1     -34.762  21.495   9.890  1.00  0.00     0.004 C 
ENDBRANCH  18  19
ENDBRANCH  17  18
ENDBRANCH  16  17
ENDBRANCH  15  16
ENDBRANCH  14  15
ENDBRANCH  13  14
ENDBRANCH  12  13
ENDBRANCH   1  12
TORSDOF 16
ENDMDL
MODEL 15
REMARK VINA RESULT:    -5.805      1.094      2.924
REMARK INTER + INTRA:         -13.946
REMARK INTER:                 -11.459
REMARK INTRA:                  -2.487
REMARK UNBOUND:                -2.710
REMARK SMILES CCCCCCCCCCCCCCCCCC(=O)[O-]
REMARK SMILES IDX 10 1 11 2 12 3 13 4 14 5 15 6 16 7 17 8 18 9 19 10 20 11
REMARK SMILES IDX 9 12 8 13 7 14 6 15 5 16 4 17 3 18 2 19 1 20
REMARK H PARENT
REMARK INDEX MAP 4 1 6 2 8 3 10 4 12 5 14 6 16 7 18 8 20 9 2 10 1 11 3 12 5 13
REMARK INDEX MAP 7 14 9 15 11 16 13 17 15 18 17 19 19 20
ROOT
ATOM      1  C   UNL     1     -32.585  20.047   7.452  1.00  0.00     0.000 C 
ENDROOT
BRANCH   1   2
ATOM      2  C   UNL     1     -32.534  19.788   5.941  1.00  0.00     0.000 C 
BRANCH   2   3
ATOM      3  C   UNL     1     -33.067  20.966   5.121  1.00  0.00     0.000 C 
BRANCH   3   4
ATOM      4  C   UNL     1     -34.324  20.628   4.312  1.00  0.00     0.000 C 
BRANCH   4   5
ATOM      5  C   UNL     1     -35.633  21.244   4.815  1.00  0.00     0.000 C 
BRANCH   5   6
ATOM      6  C   UNL     1     -36.355  20.468   5.922  1.00  0.00     0.000 C 
BRANCH   6   7
ATOM      7  C   UNL     1     -37.864  20.728   5.971  1.00  0.00     0.006 C 
BRANCH   7   8
ATOM      8  C   UNL     1     -38.354  21.017   7.387  1.00  0.00     0.053 C 
BRANCH   8   9
ATOM      9  C   UNL     1     -39.855  21.030   7.490  1.00  0.00     0.041 C 
ATOM     10  O   UNL     1     -40.577  20.053   7.592  1.00  0.00    -0.550 OA
ATOM     11  O   UNL     1     -40.375  22.271   7.485  1.00  0.00    -0.550 OA
ENDBRANCH   8   9
ENDBRANCH   7   8
ENDBRANCH   6   7
ENDBRANCH   5   6
ENDBRANCH   4   5
ENDBRANCH   3   4
ENDBRANCH   2   3
ENDBRANCH   1   2
BRANCH   1  12
ATOM     12  C   UNL     1     -33.730  19.344   8.194  1.00  0.00     0.000 C 
BRANCH  12  13
ATOM     13  C   UNL     1     -34.303  20.139   9.366  1.00  0.00    -0.000 C 
BRANCH  13  14
ATOM     14  C   UNL     1     -34.174  21.656   9.195  1.00  0.00    -0.000 C 
BRANCH  14  15
ATOM     15  C   UNL     1     -35.458  22.392   8.797  1.00  0.00    -0.000 C 
BRANCH  15  16
ATOM     16  C   UNL     1     -35.270  23.817   8.265  1.00  0.00    -0.000 C 
BRANCH  16  17
ATOM     17  C   UNL     1     -34.717  23.864   6.838  1.00  0.00    -0.000 C 
BRANCH  17  18
ATOM     18  C   UNL     1     -33.203  24.091   6.839  1.00  0.00    -0.000 C 
BRANCH  18  19
ATOM     19  C   UNL     1     -32.756  25.193   7.803  1.00  0.00    -0.003 C 
ATOM     20  C   UNL     1     -31.759  24.718   8.849  1.00  0.00     0.004 C 
ENDBRANCH  18  19
ENDBRANCH  17  18
ENDBRANCH  16  17
ENDBRANCH  15  16
ENDBRANCH  14  15
ENDBRANCH  13  14
ENDBRANCH  12  13
ENDBRANCH   1  12
TORSDOF 16
ENDMDL
MODEL 16
REMARK VINA RESULT:    -5.779      2.783      5.115
REMARK INTER + INTRA:         -13.895
REMARK INTER:                 -11.754
REMARK INTRA:                  -2.141
REMARK UNBOUND:                -2.710
REMARK SMILES CCCCCCCCCCCCCCCCCC(=O)[O-]
REMARK SMILES IDX 10 1 11 2 12 3 13 4 14 5 15 6 16 7 17 8 18 9 19 10 20 11
REMARK SMILES IDX 9 12 8 13 7 14 6 15 5 16 4 17 3 18 2 19 1 20
REMARK H PARENT
REMARK INDEX MAP 4 1 6 2 8 3 10 4 12 5 14 6 16 7 18 8 20 9 2 10 1 11 3 12 5 13
REMARK INDEX MAP 7 14 9 15 11 16 13 17 15 18 17 19 19 20
ROOT
ATOM      1  C   UNL     1     -33.594  18.996   7.887  1.00  0.00     0.000 C 
ENDROOT
BRANCH   1   2
ATOM      2  C   UNL     1     -33.740  19.330   9.378  1.00  0.00     0.000 C 
BRANCH   2   3
ATOM      3  C   UNL     1     -34.798  20.406   9.642  1.00  0.00     0.000 C 
BRANCH   3   4
ATOM      4  C   UNL     1     -34.569  21.181  10.944  1.00  0.00     0.000 C 
BRANCH   4   5
ATOM      5  C   UNL     1     -34.061  22.618  10.790  1.00  0.00     0.000 C 
BRANCH   5   6
ATOM      6  C   UNL     1     -33.860  23.106   9.351  1.00  0.00     0.000 C 
BRANCH   6   7
ATOM      7  C   UNL     1     -32.407  23.455   9.019  1.00  0.00     0.006 C 
BRANCH   7   8
ATOM      8  C   UNL     1     -32.300  24.680   8.113  1.00  0.00     0.053 C 
BRANCH   8   9
ATOM      9  C   UNL     1     -32.874  24.441   6.744  1.00  0.00     0.041 C 
ATOM     10  O   UNL     1     -33.969  24.804   6.350  1.00  0.00    -0.550 OA
ATOM     11  O   UNL     1     -32.034  23.780   5.926  1.00  0.00    -0.550 OA
ENDBRANCH   8   9
ENDBRANCH   7   8
ENDBRANCH   6   7
ENDBRANCH   5   6
ENDBRANCH   4   5
ENDBRANCH   3   4
ENDBRANCH   2   3
ENDBRANCH   1   2
BRANCH   1  12
ATOM     12  C   UNL     1     -32.507  19.787   7.148  1.00  0.00     0.000 C 
BRANCH  12  13
ATOM     13  C   UNL     1     -32.574  19.678   5.626  1.00  0.00    -0.000 C 
BRANCH  13  14
ATOM     14  C   UNL     1     -33.308  20.848   4.963  1.00  0.00    -0.000 C 
BRANCH  14  15
ATOM     15  C   UNL     1     -34.722  20.545   4.456  1.00  0.00    -0.000 C 
BRANCH  15  16
ATOM     16  C   UNL     1     -35.831  21.455   4.994  1.00  0.00    -0.000 C 
BRANCH  16  17
ATOM     17  C   UNL     1     -35.664  21.804   6.475  1.00  0.00    -0.000 C 
BRANCH  17  18
ATOM     18  C   UNL     1     -37.023  21.979   7.158  1.00  0.00    -0.000 C 
BRANCH  18  19
ATOM     19  C   UNL     1     -38.102  21.040   6.610  1.00  0.00    -0.003 C 
ATOM     20  C   UNL     1     -39.061  20.530   7.675  1.00  0.00     0.004 C 
ENDBRANCH  18  19
ENDBRANCH  17  18
ENDBRANCH  16  17
ENDBRANCH  15  16
ENDBRANCH  14  15
ENDBRANCH  13  14
ENDBRANCH  12  13
ENDBRANCH   1  12
TORSDOF 16
ENDMDL
MODEL 17
REMARK VINA RESULT:    -5.767      2.861      4.965
REMARK INTER + INTRA:         -13.871
REMARK INTER:                 -11.162
REMARK INTRA:                  -2.709
REMARK UNBOUND:                -2.710
REMARK SMILES CCCCCCCCCCCCCCCCCC(=O)[O-]
REMARK SMILES IDX 10 1 11 2 12 3 13 4 14 5 15 6 16 7 17 8 18 9 19 10 20 11
REMARK SMILES IDX 9 12 8 13 7 14 6 15 5 16 4 17 3 18 2 19 1 20
REMARK H PARENT
REMARK INDEX MAP 4 1 6 2 8 3 10 4 12 5 14 6 16 7 18 8 20 9 2 10 1 11 3 12 5 13
REMARK INDEX MAP 7 14 9 15 11 16 13 17 15 18 17 19 19 20
ROOT
ATOM      1  C   UNL     1     -32.224  24.010   7.596  1.00  0.00     0.000 C 
ENDROOT
BRANCH   1   2
ATOM      2  C   UNL     1     -32.284  23.145   8.862  1.00  0.00     0.000 C 
BRANCH   2   3
ATOM      3  C   UNL     1     -33.583  23.339   9.650  1.00  0.00     0.000 C 
BRANCH   3   4
ATOM      4  C   UNL     1     -33.909  22.171  10.586  1.00  0.00     0.000 C 
BRANCH   4   5
ATOM      5  C   UNL     1     -34.826  21.086  10.011  1.00  0.00     0.000 C 
BRANCH   5   6
ATOM      6  C   UNL     1     -34.239  19.672   9.961  1.00  0.00     0.000 C 
BRANCH   6   7
ATOM      7  C   UNL     1     -33.887  19.202   8.547  1.00  0.00     0.006 C 
BRANCH   7   8
ATOM      8  C   UNL     1     -32.405  18.862   8.403  1.00  0.00     0.053 C 
BRANCH   8   9
ATOM      9  C   UNL     1     -32.092  18.171   7.104  1.00  0.00     0.041 C 
ATOM     10  O   UNL     1     -32.891  17.898   6.225  1.00  0.00    -0.550 OA
ATOM     11  O   UNL     1     -30.787  17.878   6.962  1.00  0.00    -0.550 OA
ENDBRANCH   8   9
ENDBRANCH   7   8
ENDBRANCH   6   7
ENDBRANCH   5   6
ENDBRANCH   4   5
ENDBRANCH   3   4
ENDBRANCH   2   3
ENDBRANCH   1   2
BRANCH   1  12
ATOM     12  C   UNL     1     -32.274  23.233   6.275  1.00  0.00     0.000 C 
BRANCH  12  13
ATOM     13  C   UNL     1     -32.837  21.818   6.397  1.00  0.00    -0.000 C 
BRANCH  13  14
ATOM     14  C   UNL     1     -32.894  21.067   5.063  1.00  0.00    -0.000 C 
BRANCH  14  15
ATOM     15  C   UNL     1     -34.298  20.790   4.515  1.00  0.00    -0.000 C 
BRANCH  15  16
ATOM     16  C   UNL     1     -35.427  21.629   5.122  1.00  0.00    -0.000 C 
BRANCH  16  17
ATOM     17  C   UNL     1     -36.243  20.878   6.176  1.00  0.00    -0.000 C 
BRANCH  17  18
ATOM     18  C   UNL     1     -36.795  21.836   7.235  1.00  0.00    -0.000 C 
BRANCH  18  19
ATOM     19  C   UNL     1     -36.097  23.198   7.242  1.00  0.00    -0.003 C 
ATOM     20  C   UNL     1     -36.797  24.235   8.107  1.00  0.00     0.004 C 
ENDBRANCH  18  19
ENDBRANCH  17  18
ENDBRANCH  16  17
ENDBRANCH  15  16
ENDBRANCH  14  15
ENDBRANCH  13  14
ENDBRANCH  12  13
ENDBRANCH   1  12
TORSDOF 16
ENDMDL
MODEL 18
REMARK VINA RESULT:    -5.726      3.162      5.236
REMARK INTER + INTRA:         -13.793
REMARK INTER:                 -11.800
REMARK INTRA:                  -1.993
REMARK UNBOUND:                -2.710
REMARK SMILES CCCCCCCCCCCCCCCCCC(=O)[O-]
REMARK SMILES IDX 10 1 11 2 12 3 13 4 14 5 15 6 16 7 17 8 18 9 19 10 20 11
REMARK SMILES IDX 9 12 8 13 7 14 6 15 5 16 4 17 3 18 2 19 1 20
REMARK H PARENT
REMARK INDEX MAP 4 1 6 2 8 3 10 4 12 5 14 6 16 7 18 8 20 9 2 10 1 11 3 12 5 13
REMARK INDEX MAP 7 14 9 15 11 16 13 17 15 18 17 19 19 20
ROOT
ATOM      1  C   UNL     1     -37.737  20.132   6.562  1.00  0.00     0.000 C 
ENDROOT
BRANCH   1   2
ATOM      2  C   UNL     1     -37.951  20.641   5.131  1.00  0.00     0.000 C 
BRANCH   2   3
ATOM      3  C   UNL     1     -36.738  20.396   4.228  1.00  0.00     0.000 C 
BRANCH   3   4
ATOM      4  C   UNL     1     -35.549  21.310   4.542  1.00  0.00     0.000 C 
BRANCH   4   5
ATOM      5  C   UNL     1     -34.166  20.761   4.176  1.00  0.00     0.000 C 
BRANCH   5   6
ATOM      6  C   UNL     1     -33.032  21.106   5.147  1.00  0.00     0.000 C 
BRANCH   6   7
ATOM      7  C   UNL     1     -33.133  20.381   6.492  1.00  0.00     0.006 C 
BRANCH   7   8
ATOM      8  C   UNL     1     -31.761  20.025   7.061  1.00  0.00     0.053 C 
BRANCH   8   9
ATOM      9  C   UNL     1     -31.522  18.541   7.111  1.00  0.00     0.041 C 
ATOM     10  O   UNL     1     -31.389  17.868   8.119  1.00  0.00    -0.550 OA
ATOM     11  O   UNL     1     -31.486  17.969   5.894  1.00  0.00    -0.550 OA
ENDBRANCH   8   9
ENDBRANCH   7   8
ENDBRANCH   6   7
ENDBRANCH   5   6
ENDBRANCH   4   5
ENDBRANCH   3   4
ENDBRANCH   2   3
ENDBRANCH   1   2
BRANCH   1  12
ATOM     12  C   UNL     1     -37.319  21.203   7.577  1.00  0.00     0.000 C 
BRANCH  12  13
ATOM     13  C   UNL     1     -35.913  21.018   8.145  1.00  0.00    -0.000 C 
BRANCH  13  14
ATOM     14  C   UNL     1     -35.277  22.323   8.634  1.00  0.00    -0.000 C 
BRANCH  14  15
ATOM     15  C   UNL     1     -34.644  22.273  10.029  1.00  0.00    -0.000 C 
BRANCH  15  16
ATOM     16  C   UNL     1     -33.373  23.110  10.212  1.00  0.00    -0.000 C 
BRANCH  16  17
ATOM     17  C   UNL     1     -32.475  23.129   8.973  1.00  0.00    -0.000 C 
BRANCH  17  18
ATOM     18  C   UNL     1     -32.072  24.559   8.604  1.00  0.00    -0.000 C 
BRANCH  18  19
ATOM     19  C   UNL     1     -32.223  24.865   7.111  1.00  0.00    -0.003 C 
ATOM     20  C   UNL     1     -33.648  24.711   6.600  1.00  0.00     0.004 C 
ENDBRANCH  18  19
ENDBRANCH  17  18
ENDBRANCH  16  17
ENDBRANCH  15  16
ENDBRANCH  14  15
ENDBRANCH  13  14
ENDBRANCH  12  13
ENDBRANCH   1  12
TORSDOF 16
ENDMDL
MODEL 19
REMARK VINA RESULT:    -5.722      3.227      6.587
REMARK INTER + INTRA:         -13.785
REMARK INTER:                 -12.278
REMARK INTRA:                  -1.507
REMARK UNBOUND:                -2.710
REMARK SMILES CCCCCCCCCCCCCCCCCC(=O)[O-]
REMARK SMILES IDX 10 1 11 2 12 3 13 4 14 5 15 6 16 7 17 8 18 9 19 10 20 11
REMARK SMILES IDX 9 12 8 13 7 14 6 15 5 16 4 17 3 18 2 19 1 20
REMARK H PARENT
REMARK INDEX MAP 4 1 6 2 8 3 10 4 12 5 14 6 16 7 18 8 20 9 2 10 1 11 3 12 5 13
REMARK INDEX MAP 7 14 9 15 11 16 13 17 15 18 17 19 19 20
ROOT
ATOM      1  C   UNL     1     -35.388  24.173   7.633  1.00  0.00     0.000 C 
ENDROOT
BRANCH   1   2
ATOM      2  C   UNL     1     -34.063  24.348   6.881  1.00  0.00     0.000 C 
BRANCH   2   3
ATOM      3  C   UNL     1     -33.036  25.163   7.674  1.00  0.00     0.000 C 
BRANCH   3   4
ATOM      4  C   UNL     1     -31.965  24.301   8.352  1.00  0.00     0.000 C 
BRANCH   4   5
ATOM      5  C   UNL     1     -32.305  22.816   8.519  1.00  0.00     0.000 C 
BRANCH   5   6
ATOM      6  C   UNL     1     -31.575  21.853   7.578  1.00  0.00     0.000 C 
BRANCH   6   7
ATOM      7  C   UNL     1     -32.515  21.008   6.713  1.00  0.00     0.006 C 
BRANCH   7   8
ATOM      8  C   UNL     1     -32.661  21.572   5.301  1.00  0.00     0.053 C 
BRANCH   8   9
ATOM      9  C   UNL     1     -32.857  20.498   4.266  1.00  0.00     0.041 C 
ATOM     10  O   UNL     1     -33.294  20.657   3.139  1.00  0.00    -0.550 OA
ATOM     11  O   UNL     1     -32.470  19.280   4.687  1.00  0.00    -0.550 OA
ENDBRANCH   8   9
ENDBRANCH   7   8
ENDBRANCH   6   7
ENDBRANCH   5   6
ENDBRANCH   4   5
ENDBRANCH   3   4
ENDBRANCH   2   3
ENDBRANCH   1   2
BRANCH   1  12
ATOM     12  C   UNL     1     -35.834  22.720   7.835  1.00  0.00     0.000 C 
BRANCH  12  13
ATOM     13  C   UNL     1     -36.174  21.979   6.543  1.00  0.00    -0.000 C 
BRANCH  13  14
ATOM     14  C   UNL     1     -37.179  20.840   6.740  1.00  0.00    -0.000 C 
BRANCH  14  15
ATOM     15  C   UNL     1     -37.922  20.383   5.481  1.00  0.00    -0.000 C 
BRANCH  15  16
ATOM     16  C   UNL     1     -37.136  20.486   4.170  1.00  0.00    -0.000 C 
BRANCH  16  17
ATOM     17  C   UNL     1     -38.028  20.506   2.926  1.00  0.00    -0.000 C 
BRANCH  17  18
ATOM     18  C   UNL     1     -39.494  20.738   3.301  1.00  0.00    -0.000 C 
BRANCH  18  19
ATOM     19  C   UNL     1     -40.475  20.273   2.222  1.00  0.00    -0.003 C 
ATOM     20  C   UNL     1     -41.036  21.409   1.380  1.00  0.00     0.004 C 
ENDBRANCH  18  19
ENDBRANCH  17  18
ENDBRANCH  16  17
ENDBRANCH  15  16
ENDBRANCH  14  15
ENDBRANCH  13  14
ENDBRANCH  12  13
ENDBRANCH   1  12
TORSDOF 16
ENDMDL
MODEL 20
REMARK VINA RESULT:    -5.630      3.257      5.514
REMARK INTER + INTRA:         -13.607
REMARK INTER:                 -11.185
REMARK INTRA:                  -2.422
REMARK UNBOUND:                -2.710
REMARK SMILES CCCCCCCCCCCCCCCCCC(=O)[O-]
REMARK SMILES IDX 10 1 11 2 12 3 13 4 14 5 15 6 16 7 17 8 18 9 19 10 20 11
REMARK SMILES IDX 9 12 8 13 7 14 6 15 5 16 4 17 3 18 2 19 1 20
REMARK H PARENT
REMARK INDEX MAP 4 1 6 2 8 3 10 4 12 5 14 6 16 7 18 8 20 9 2 10 1 11 3 12 5 13
REMARK INDEX MAP 7 14 9 15 11 16 13 17 15 18 17 19 19 20
ROOT
ATOM      1  C   UNL     1     -34.385  19.323   7.905  1.00  0.00     0.000 C 
ENDROOT
BRANCH   1   2
ATOM      2  C   UNL     1     -33.908  19.577   9.341  1.00  0.00     0.000 C 
BRANCH   2   3
ATOM      3  C   UNL     1     -34.450  20.886   9.922  1.00  0.00     0.000 C 
BRANCH   3   4
ATOM      4  C   UNL     1     -35.404  21.625   8.977  1.00  0.00     0.000 C 
BRANCH   4   5
ATOM      5  C   UNL     1     -35.116  23.114   8.762  1.00  0.00     0.000 C 
BRANCH   5   6
ATOM      6  C   UNL     1     -35.263  23.623   7.325  1.00  0.00     0.000 C 
BRANCH   6   7
ATOM      7  C   UNL     1     -33.991  24.267   6.767  1.00  0.00     0.006 C 
BRANCH   7   8
ATOM      8  C   UNL     1     -33.180  24.976   7.851  1.00  0.00     0.053 C 
BRANCH   8   9
ATOM      9  C   UNL     1     -31.833  24.346   8.072  1.00  0.00     0.041 C 
ATOM     10  O   UNL     1     -30.996  24.705   8.883  1.00  0.00    -0.550 OA
ATOM     11  O   UNL     1     -31.610  23.280   7.282  1.00  0.00    -0.550 OA
ENDBRANCH   8   9
ENDBRANCH   7   8
ENDBRANCH   6   7
ENDBRANCH   5   6
ENDBRANCH   4   5
ENDBRANCH   3   4
ENDBRANCH   2   3
ENDBRANCH   1   2
BRANCH   1  12
ATOM     12  C   UNL     1     -33.296  19.432   6.830  1.00  0.00     0.000 C 
BRANCH  12  13
ATOM     13  C   UNL     1     -33.410  20.669   5.941  1.00  0.00    -0.000 C 
BRANCH  13  14
ATOM     14  C   UNL     1     -34.334  20.471   4.735  1.00  0.00    -0.000 C 
BRANCH  14  15
ATOM     15  C   UNL     1     -35.668  21.223   4.787  1.00  0.00    -0.000 C 
BRANCH  15  16
ATOM     16  C   UNL     1     -36.864  20.499   4.159  1.00  0.00    -0.000 C 
BRANCH  16  17
ATOM     17  C   UNL     1     -38.091  20.450   5.072  1.00  0.00    -0.000 C 
BRANCH  17  18
ATOM     18  C   UNL     1     -37.688  20.526   6.547  1.00  0.00    -0.000 C 
BRANCH  18  19
ATOM     19  C   UNL     1     -38.865  20.812   7.483  1.00  0.00    -0.003 C 
ATOM     20  C   UNL     1     -39.458  22.201   7.307  1.00  0.00     0.004 C 
ENDBRANCH  18  19
ENDBRANCH  17  18
ENDBRANCH  16  17
ENDBRANCH  15  16
ENDBRANCH  14  15
ENDBRANCH  13  14
ENDBRANCH  12  13
ENDBRANCH   1  12
TORSDOF 16
ENDMDL
