MODEL 1
REMARK VINA RESULT:    -6.445      0.000      0.000
REMARK INTER + INTRA:         -14.716
REMARK INTER:                 -12.473
REMARK INTRA:                  -2.243
REMARK UNBOUND:                -2.243
REMARK SMILES CCCCCCCCCCCCCCCCCC(=O)[O-]
REMARK SMILES IDX 10 1 11 2 12 3 13 4 14 5 15 6 16 7 17 8 18 9 19 10 20 11
REMARK SMILES IDX 9 12 8 13 7 14 6 15 5 16 4 17 3 18 2 19 1 20
REMARK H PARENT
REMARK INDEX MAP 4 1 6 2 8 3 10 4 12 5 14 6 16 7 18 8 20 9 2 10 1 11 3 12 5 13
REMARK INDEX MAP 7 14 9 15 11 16 13 17 15 18 17 19 19 20
ROOT
ATOM      1  C   UNL     1     -33.328  23.058  10.382  1.00  0.00     0.000 C 
ENDROOT
BRANCH   1   2
ATOM      2  C   UNL     1     -34.585  22.181  10.312  1.00  0.00     0.000 C 
BRANCH   2   3
ATOM      3  C   UNL     1     -34.462  20.903  11.147  1.00  0.00     0.000 C 
BRANCH   3   4
ATOM      4  C   UNL     1     -34.346  19.630  10.302  1.00  0.00     0.000 C 
BRANCH   4   5
ATOM      5  C   UNL     1     -34.351  19.829   8.783  1.00  0.00     0.000 C 
BRANCH   5   6
ATOM      6  C   UNL     1     -33.199  19.170   8.018  1.00  0.00     0.000 C 
BRANCH   6   7
ATOM      7  C   UNL     1     -32.565  20.077   6.960  1.00  0.00     0.006 C 
BRANCH   7   8
ATOM      8  C   UNL     1     -33.003  19.706   5.544  1.00  0.00     0.053 C 
BRANCH   8   9
ATOM      9  C   UNL     1     -33.229  20.910   4.672  1.00  0.00     0.041 C 
ATOM     10  O   UNL     1     -34.105  21.037   3.835  1.00  0.00    -0.550 OA
ATOM     11  O   UNL     1     -32.358  21.908   4.912  1.00  0.00    -0.550 OA
ENDBRANCH   8   9
ENDBRANCH   7   8
ENDBRANCH   6   7
ENDBRANCH   5   6
ENDBRANCH   4   5
ENDBRANCH   3   4
ENDBRANCH   2   3
ENDBRANCH   1   2
BRANCH   1  12
ATOM     12  C   UNL     1     -32.503  23.116   9.091  1.00  0.00     0.000 C 
BRANCH  12  13
ATOM     13  C   UNL     1     -31.962  24.503   8.751  1.00  0.00    -0.000 C 
BRANCH  13  14
ATOM     14  C   UNL     1     -32.860  25.289   7.791  1.00  0.00    -0.000 C 
BRANCH  14  15
ATOM     15  C   UNL     1     -33.667  24.449   6.796  1.00  0.00    -0.000 C 
BRANCH  15  16
ATOM     16  C   UNL     1     -35.097  24.103   7.223  1.00  0.00    -0.000 C 
BRANCH  16  17
ATOM     17  C   UNL     1     -35.539  22.704   6.789  1.00  0.00    -0.000 C 
BRANCH  17  18
ATOM     18  C   UNL     1     -36.926  22.365   7.342  1.00  0.00    -0.000 C 
BRANCH  18  19
ATOM     19  C   UNL     1     -37.316  20.898   7.143  1.00  0.00    -0.003 C 
ATOM     20  C   UNL     1     -38.780  20.703   6.780  1.00  0.00     0.004 C 
ENDBRANCH  18  19
ENDBRANCH  17  18
ENDBRANCH  16  17
ENDBRANCH  15  16
ENDBRANCH  14  15
ENDBRANCH  13  14
ENDBRANCH  12  13
ENDBRANCH   1  12
TORSDOF 16
ENDMDL
MODEL 2
REMARK VINA RESULT:    -6.331      1.865      4.906
REMARK INTER + INTRA:         -14.496
REMARK INTER:                 -12.098
REMARK INTRA:                  -2.399
REMARK UNBOUND:                -2.243
REMARK SMILES CCCCCCCCCCCCCCCCCC(=O)[O-]
REMARK SMILES IDX 10 1 11 2 12 3 13 4 14 5 15 6 16 7 17 8 18 9 19 10 20 11
REMARK SMILES IDX 9 12 8 13 7 14 6 15 5 16 4 17 3 18 2 19 1 20
REMARK H PARENT
REMARK INDEX MAP 4 1 6 2 8 3 10 4 12 5 14 6 16 7 18 8 20 9 2 10 1 11 3 12 5 13
REMARK INDEX MAP 7 14 9 15 11 16 13 17 15 18 17 19 19 20
ROOT
ATOM      1  C   UNL     1     -37.442  20.927   6.964  1.00  0.00     0.000 C 
ENDROOT
BRANCH   1   2
ATOM      2  C   UNL     1     -38.056  20.744   5.570  1.00  0.00     0.000 C 
BRANCH   2   3
ATOM      3  C   UNL     1     -37.008  20.424   4.500  1.00  0.00     0.000 C 
BRANCH   3   4
ATOM      4  C   UNL     1     -35.717  21.237   4.647  1.00  0.00     0.000 C 
BRANCH   4   5
ATOM      5  C   UNL     1     -34.419  20.426   4.735  1.00  0.00     0.000 C 
BRANCH   5   6
ATOM      6  C   UNL     1     -33.140  21.237   4.964  1.00  0.00     0.000 C 
BRANCH   6   7
ATOM      7  C   UNL     1     -32.419  20.892   6.271  1.00  0.00     0.006 C 
BRANCH   7   8
ATOM      8  C   UNL     1     -32.943  19.600   6.895  1.00  0.00     0.053 C 
BRANCH   8   9
ATOM      9  C   UNL     1     -31.888  18.532   6.989  1.00  0.00     0.041 C 
ATOM     10  O   UNL     1     -31.327  18.163   8.007  1.00  0.00    -0.550 OA
ATOM     11  O   UNL     1     -31.606  17.961   5.804  1.00  0.00    -0.550 OA
ENDBRANCH   8   9
ENDBRANCH   7   8
ENDBRANCH   6   7
ENDBRANCH   5   6
ENDBRANCH   4   5
ENDBRANCH   3   4
ENDBRANCH   2   3
ENDBRANCH   1   2
BRANCH   1  12
ATOM     12  C   UNL     1     -37.512  22.354   7.523  1.00  0.00     0.000 C 
BRANCH  12  13
ATOM     13  C   UNL     1     -36.152  23.020   7.723  1.00  0.00    -0.000 C 
BRANCH  13  14
ATOM     14  C   UNL     1     -35.175  22.176   8.549  1.00  0.00    -0.000 C 
BRANCH  14  15
ATOM     15  C   UNL     1     -34.815  22.735   9.929  1.00  0.00    -0.000 C 
BRANCH  15  16
ATOM     16  C   UNL     1     -33.320  22.957  10.187  1.00  0.00    -0.000 C 
BRANCH  16  17
ATOM     17  C   UNL     1     -32.517  23.221   8.911  1.00  0.00    -0.000 C 
BRANCH  17  18
ATOM     18  C   UNL     1     -32.021  24.668   8.860  1.00  0.00    -0.000 C 
BRANCH  18  19
ATOM     19  C   UNL     1     -32.661  25.488   7.736  1.00  0.00    -0.003 C 
ATOM     20  C   UNL     1     -33.143  24.643   6.567  1.00  0.00     0.004 C 
ENDBRANCH  18  19
ENDBRANCH  17  18
ENDBRANCH  16  17
ENDBRANCH  15  16
ENDBRANCH  14  15
ENDBRANCH  13  14
ENDBRANCH  12  13
ENDBRANCH   1  12
TORSDOF 16
ENDMDL
MODEL 3
REMARK VINA RESULT:    -6.278      2.082      4.115
REMARK INTER + INTRA:         -14.393
REMARK INTER:                 -11.871
REMARK INTRA:                  -2.522
REMARK UNBOUND:                -2.243
REMARK SMILES CCCCCCCCCCCCCCCCCC(=O)[O-]
REMARK SMILES IDX 10 1 11 2 12 3 13 4 14 5 15 6 16 7 17 8 18 9 19 10 20 11
REMARK SMILES IDX 9 12 8 13 7 14 6 15 5 16 4 17 3 18 2 19 1 20
REMARK H PARENT
REMARK INDEX MAP 4 1 6 2 8 3 10 4 12 5 14 6 16 7 18 8 20 9 2 10 1 11 3 12 5 13
REMARK INDEX MAP 7 14 9 15 11 16 13 17 15 18 17 19 19 20
ROOT
ATOM      1  C   UNL     1     -32.211  24.449   7.310  1.00  0.00     0.000 C 
ENDROOT
BRANCH   1   2
ATOM      2  C   UNL     1     -31.754  23.225   8.115  1.00  0.00     0.000 C 
BRANCH   2   3
ATOM      3  C   UNL     1     -31.699  21.948   7.271  1.00  0.00     0.000 C 
BRANCH   3   4
ATOM      4  C   UNL     1     -32.128  22.160   5.815  1.00  0.00     0.000 C 
BRANCH   4   5
ATOM      5  C   UNL     1     -33.233  21.233   5.298  1.00  0.00     0.000 C 
BRANCH   5   6
ATOM      6  C   UNL     1     -32.805  20.206   4.244  1.00  0.00     0.000 C 
BRANCH   6   7
ATOM      7  C   UNL     1     -32.338  18.874   4.838  1.00  0.00     0.006 C 
BRANCH   7   8
ATOM      8  C   UNL     1     -32.849  18.667   6.262  1.00  0.00     0.053 C 
BRANCH   8   9
ATOM      9  C   UNL     1     -31.755  18.284   7.221  1.00  0.00     0.041 C 
ATOM     10  O   UNL     1     -30.681  17.791   6.925  1.00  0.00    -0.550 OA
ATOM     11  O   UNL     1     -32.054  18.562   8.503  1.00  0.00    -0.550 OA
ENDBRANCH   8   9
ENDBRANCH   7   8
ENDBRANCH   6   7
ENDBRANCH   5   6
ENDBRANCH   4   5
ENDBRANCH   3   4
ENDBRANCH   2   3
ENDBRANCH   1   2
BRANCH   1  12
ATOM     12  C   UNL     1     -33.616  24.962   7.648  1.00  0.00     0.000 C 
BRANCH  12  13
ATOM     13  C   UNL     1     -34.728  24.370   6.783  1.00  0.00    -0.000 C 
BRANCH  13  14
ATOM     14  C   UNL     1     -35.810  23.647   7.591  1.00  0.00    -0.000 C 
BRANCH  14  15
ATOM     15  C   UNL     1     -36.250  22.285   7.046  1.00  0.00    -0.000 C 
BRANCH  15  16
ATOM     16  C   UNL     1     -36.324  21.150   8.074  1.00  0.00    -0.000 C 
BRANCH  16  17
ATOM     17  C   UNL     1     -34.950  20.665   8.543  1.00  0.00    -0.000 C 
BRANCH  17  18
ATOM     18  C   UNL     1     -34.724  20.990  10.022  1.00  0.00    -0.000 C 
BRANCH  18  19
ATOM     19  C   UNL     1     -34.358  22.455  10.271  1.00  0.00    -0.003 C 
ATOM     20  C   UNL     1     -33.855  22.725  11.681  1.00  0.00     0.004 C 
ENDBRANCH  18  19
ENDBRANCH  17  18
ENDBRANCH  16  17
ENDBRANCH  15  16
ENDBRANCH  14  15
ENDBRANCH  13  14
ENDBRANCH  12  13
ENDBRANCH   1  12
TORSDOF 16
ENDMDL
MODEL 4
REMARK VINA RESULT:    -6.240      2.111      3.869
REMARK INTER + INTRA:         -14.319
REMARK INTER:                 -12.238
REMARK INTRA:                  -2.081
REMARK UNBOUND:                -2.243
REMARK SMILES CCCCCCCCCCCCCCCCCC(=O)[O-]
REMARK SMILES IDX 10 1 11 2 12 3 13 4 14 5 15 6 16 7 17 8 18 9 19 10 20 11
REMARK SMILES IDX 9 12 8 13 7 14 6 15 5 16 4 17 3 18 2 19 1 20
REMARK H PARENT
REMARK INDEX MAP 4 1 6 2 8 3 10 4 12 5 14 6 16 7 18 8 20 9 2 10 1 11 3 12 5 13
REMARK INDEX MAP 7 14 9 15 11 16 13 17 15 18 17 19 19 20
ROOT
ATOM      1  C   UNL     1     -34.103  24.281   6.919  1.00  0.00     0.000 C 
ENDROOT
BRANCH   1   2
ATOM      2  C   UNL     1     -33.117  25.191   7.662  1.00  0.00     0.000 C 
BRANCH   2   3
ATOM      3  C   UNL     1     -31.886  24.437   8.175  1.00  0.00     0.000 C 
BRANCH   3   4
ATOM      4  C   UNL     1     -32.141  22.945   8.413  1.00  0.00     0.000 C 
BRANCH   4   5
ATOM      5  C   UNL     1     -31.531  21.987   7.384  1.00  0.00     0.000 C 
BRANCH   5   6
ATOM      6  C   UNL     1     -32.498  20.977   6.757  1.00  0.00     0.000 C 
BRANCH   6   7
ATOM      7  C   UNL     1     -33.204  20.084   7.781  1.00  0.00     0.006 C 
BRANCH   7   8
ATOM      8  C   UNL     1     -33.127  18.605   7.409  1.00  0.00     0.053 C 
BRANCH   8   9
ATOM      9  C   UNL     1     -31.833  18.244   6.733  1.00  0.00     0.041 C 
ATOM     10  O   UNL     1     -31.670  18.070   5.537  1.00  0.00    -0.550 OA
ATOM     11  O   UNL     1     -30.799  18.143   7.588  1.00  0.00    -0.550 OA
ENDBRANCH   8   9
ENDBRANCH   7   8
ENDBRANCH   6   7
ENDBRANCH   5   6
ENDBRANCH   4   5
ENDBRANCH   3   4
ENDBRANCH   2   3
ENDBRANCH   1   2
BRANCH   1  12
ATOM     12  C   UNL     1     -35.411  23.992   7.666  1.00  0.00     0.000 C 
BRANCH  12  13
ATOM     13  C   UNL     1     -35.949  22.576   7.470  1.00  0.00    -0.000 C 
BRANCH  13  14
ATOM     14  C   UNL     1     -35.846  22.079   6.024  1.00  0.00    -0.000 C 
BRANCH  14  15
ATOM     15  C   UNL     1     -36.307  20.639   5.781  1.00  0.00    -0.000 C 
BRANCH  15  16
ATOM     16  C   UNL     1     -37.410  20.462   4.733  1.00  0.00    -0.000 C 
BRANCH  16  17
ATOM     17  C   UNL     1     -38.817  20.411   5.334  1.00  0.00    -0.000 C 
BRANCH  17  18
ATOM     18  C   UNL     1     -38.790  19.852   6.758  1.00  0.00    -0.000 C 
BRANCH  18  19
ATOM     19  C   UNL     1     -39.577  20.703   7.758  1.00  0.00    -0.003 C 
ATOM     20  C   UNL     1     -39.649  22.174   7.379  1.00  0.00     0.004 C 
ENDBRANCH  18  19
ENDBRANCH  17  18
ENDBRANCH  16  17
ENDBRANCH  15  16
ENDBRANCH  14  15
ENDBRANCH  13  14
ENDBRANCH  12  13
ENDBRANCH   1  12
TORSDOF 16
ENDMDL
MODEL 5
REMARK VINA RESULT:    -6.236      2.322      5.403
REMARK INTER + INTRA:         -14.311
REMARK INTER:                 -11.699
REMARK INTRA:                  -2.612
REMARK UNBOUND:                -2.243
REMARK SMILES CCCCCCCCCCCCCCCCCC(=O)[O-]
REMARK SMILES IDX 10 1 11 2 12 3 13 4 14 5 15 6 16 7 17 8 18 9 19 10 20 11
REMARK SMILES IDX 9 12 8 13 7 14 6 15 5 16 4 17 3 18 2 19 1 20
REMARK H PARENT
REMARK INDEX MAP 4 1 6 2 8 3 10 4 12 5 14 6 16 7 18 8 20 9 2 10 1 11 3 12 5 13
REMARK INDEX MAP 7 14 9 15 11 16 13 17 15 18 17 19 19 20
ROOT
ATOM      1  C   UNL     1     -33.135  19.123   7.270  1.00  0.00     0.000 C 
ENDROOT
BRANCH   1   2
ATOM      2  C   UNL     1     -32.214  20.323   7.016  1.00  0.00     0.000 C 
BRANCH   2   3
ATOM      3  C   UNL     1     -32.612  21.121   5.770  1.00  0.00     0.000 C 
BRANCH   3   4
ATOM      4  C   UNL     1     -33.467  20.321   4.781  1.00  0.00     0.000 C 
BRANCH   4   5
ATOM      5  C   UNL     1     -34.843  20.910   4.454  1.00  0.00     0.000 C 
BRANCH   5   6
ATOM      6  C   UNL     1     -35.578  21.579   5.620  1.00  0.00     0.000 C 
BRANCH   6   7
ATOM      7  C   UNL     1     -36.792  20.788   6.116  1.00  0.00     0.006 C 
BRANCH   7   8
ATOM      8  C   UNL     1     -37.636  21.586   7.106  1.00  0.00     0.053 C 
BRANCH   8   9
ATOM      9  C   UNL     1     -39.081  21.167   7.107  1.00  0.00     0.041 C 
ATOM     10  O   UNL     1     -39.730  20.828   8.082  1.00  0.00    -0.550 OA
ATOM     11  O   UNL     1     -39.647  21.218   5.888  1.00  0.00    -0.550 OA
ENDBRANCH   8   9
ENDBRANCH   7   8
ENDBRANCH   6   7
ENDBRANCH   5   6
ENDBRANCH   4   5
ENDBRANCH   3   4
ENDBRANCH   2   3
ENDBRANCH   1   2
BRANCH   1  12
ATOM     12  C   UNL     1     -34.290  19.384   8.244  1.00  0.00     0.000 C 
BRANCH  12  13
ATOM     13  C   UNL     1     -33.867  19.489   9.709  1.00  0.00    -0.000 C 
BRANCH  13  14
ATOM     14  C   UNL     1     -34.762  20.416  10.537  1.00  0.00    -0.000 C 
BRANCH  14  15
ATOM     15  C   UNL     1     -34.342  21.889  10.572  1.00  0.00    -0.000 C 
BRANCH  15  16
ATOM     16  C   UNL     1     -34.935  22.775   9.471  1.00  0.00    -0.000 C 
BRANCH  16  17
ATOM     17  C   UNL     1     -33.910  23.208   8.420  1.00  0.00    -0.000 C 
BRANCH  17  18
ATOM     18  C   UNL     1     -32.529  23.415   9.047  1.00  0.00    -0.000 C 
BRANCH  18  19
ATOM     19  C   UNL     1     -31.748  24.574   8.423  1.00  0.00    -0.003 C 
ATOM     20  C   UNL     1     -32.400  25.142   7.172  1.00  0.00     0.004 C 
ENDBRANCH  18  19
ENDBRANCH  17  18
ENDBRANCH  16  17
ENDBRANCH  15  16
ENDBRANCH  14  15
ENDBRANCH  13  14
ENDBRANCH  12  13
ENDBRANCH   1  12
TORSDOF 16
ENDMDL
MODEL 6
REMARK VINA RESULT:    -6.195      1.692      4.287
REMARK INTER + INTRA:         -14.233
REMARK INTER:                 -11.625
REMARK INTRA:                  -2.608
REMARK UNBOUND:                -2.243
REMARK SMILES CCCCCCCCCCCCCCCCCC(=O)[O-]
REMARK SMILES IDX 10 1 11 2 12 3 13 4 14 5 15 6 16 7 17 8 18 9 19 10 20 11
REMARK SMILES IDX 9 12 8 13 7 14 6 15 5 16 4 17 3 18 2 19 1 20
REMARK H PARENT
REMARK INDEX MAP 4 1 6 2 8 3 10 4 12 5 14 6 16 7 18 8 20 9 2 10 1 11 3 12 5 13
REMARK INDEX MAP 7 14 9 15 11 16 13 17 15 18 17 19 19 20
ROOT
ATOM      1  C   UNL     1     -36.144  21.919   7.405  1.00  0.00     0.000 C 
ENDROOT
BRANCH   1   2
ATOM      2  C   UNL     1     -37.199  21.173   6.578  1.00  0.00     0.000 C 
BRANCH   2   3
ATOM      3  C   UNL     1     -36.655  20.677   5.234  1.00  0.00     0.000 C 
BRANCH   3   4
ATOM      4  C   UNL     1     -35.483  21.511   4.706  1.00  0.00     0.000 C 
BRANCH   4   5
ATOM      5  C   UNL     1     -34.268  20.721   4.208  1.00  0.00     0.000 C 
BRANCH   5   6
ATOM      6  C   UNL     1     -32.952  20.983   4.948  1.00  0.00     0.000 C 
BRANCH   6   7
ATOM      7  C   UNL     1     -33.058  20.817   6.467  1.00  0.00     0.006 C 
BRANCH   7   8
ATOM      8  C   UNL     1     -33.202  19.353   6.879  1.00  0.00     0.053 C 
BRANCH   8   9
ATOM      9  C   UNL     1     -31.916  18.584   6.747  1.00  0.00     0.041 C 
ATOM     10  O   UNL     1     -31.072  18.441   7.614  1.00  0.00    -0.550 OA
ATOM     11  O   UNL     1     -31.764  18.012   5.539  1.00  0.00    -0.550 OA
ENDBRANCH   8   9
ENDBRANCH   7   8
ENDBRANCH   6   7
ENDBRANCH   5   6
ENDBRANCH   4   5
ENDBRANCH   3   4
ENDBRANCH   2   3
ENDBRANCH   1   2
BRANCH   1  12
ATOM     12  C   UNL     1     -36.577  23.298   7.918  1.00  0.00     0.000 C 
BRANCH  12  13
ATOM     13  C   UNL     1     -35.516  24.387   7.772  1.00  0.00    -0.000 C 
BRANCH  13  14
ATOM     14  C   UNL     1     -34.620  24.204   6.542  1.00  0.00    -0.000 C 
BRANCH  14  15
ATOM     15  C   UNL     1     -33.131  24.498   6.753  1.00  0.00    -0.000 C 
BRANCH  15  16
ATOM     16  C   UNL     1     -32.780  25.263   8.033  1.00  0.00    -0.000 C 
BRANCH  16  17
ATOM     17  C   UNL     1     -31.936  24.448   9.016  1.00  0.00    -0.000 C 
BRANCH  17  18
ATOM     18  C   UNL     1     -32.581  23.090   9.304  1.00  0.00    -0.000 C 
BRANCH  18  19
ATOM     19  C   UNL     1     -33.489  23.099  10.536  1.00  0.00    -0.003 C 
ATOM     20  C   UNL     1     -34.327  21.838  10.683  1.00  0.00     0.004 C 
ENDBRANCH  18  19
ENDBRANCH  17  18
ENDBRANCH  16  17
ENDBRANCH  15  16
ENDBRANCH  14  15
ENDBRANCH  13  14
ENDBRANCH  12  13
ENDBRANCH   1  12
TORSDOF 16
ENDMDL
MODEL 7
REMARK VINA RESULT:    -6.137      1.367      3.261
REMARK INTER + INTRA:         -14.120
REMARK INTER:                 -11.603
REMARK INTRA:                  -2.517
REMARK UNBOUND:                -2.243
REMARK SMILES CCCCCCCCCCCCCCCCCC(=O)[O-]
REMARK SMILES IDX 10 1 11 2 12 3 13 4 14 5 15 6 16 7 17 8 18 9 19 10 20 11
REMARK SMILES IDX 9 12 8 13 7 14 6 15 5 16 4 17 3 18 2 19 1 20
REMARK H PARENT
REMARK INDEX MAP 4 1 6 2 8 3 10 4 12 5 14 6 16 7 18 8 20 9 2 10 1 11 3 12 5 13
REMARK INDEX MAP 7 14 9 15 11 16 13 17 15 18 17 19 19 20
ROOT
ATOM      1  C   UNL     1     -33.912  24.402   6.868  1.00  0.00     0.000 C 
ENDROOT
BRANCH   1   2
ATOM      2  C   UNL     1     -32.674  24.850   7.656  1.00  0.00     0.000 C 
BRANCH   2   3
ATOM      3  C   UNL     1     -32.184  23.786   8.643  1.00  0.00     0.000 C 
BRANCH   3   4
ATOM      4  C   UNL     1     -32.112  22.380   8.038  1.00  0.00     0.000 C 
BRANCH   4   5
ATOM      5  C   UNL     1     -32.998  21.318   8.699  1.00  0.00     0.000 C 
BRANCH   5   6
ATOM      6  C   UNL     1     -33.105  19.982   7.958  1.00  0.00     0.000 C 
BRANCH   6   7
ATOM      7  C   UNL     1     -32.178  19.876   6.744  1.00  0.00     0.006 C 
BRANCH   7   8
ATOM      8  C   UNL     1     -32.949  19.661   5.444  1.00  0.00     0.053 C 
BRANCH   8   9
ATOM      9  C   UNL     1     -32.856  20.839   4.513  1.00  0.00     0.041 C 
ATOM     10  O   UNL     1     -32.482  21.961   4.809  1.00  0.00    -0.550 OA
ATOM     11  O   UNL     1     -33.212  20.544   3.250  1.00  0.00    -0.550 OA
ENDBRANCH   8   9
ENDBRANCH   7   8
ENDBRANCH   6   7
ENDBRANCH   5   6
ENDBRANCH   4   5
ENDBRANCH   3   4
ENDBRANCH   2   3
ENDBRANCH   1   2
BRANCH   1  12
ATOM     12  C   UNL     1     -35.211  24.340   7.680  1.00  0.00     0.000 C 
BRANCH  12  13
ATOM     13  C   UNL     1     -35.929  22.992   7.619  1.00  0.00    -0.000 C 
BRANCH  13  14
ATOM     14  C   UNL     1     -35.692  22.235   6.309  1.00  0.00    -0.000 C 
BRANCH  14  15
ATOM     15  C   UNL     1     -36.253  20.810   6.253  1.00  0.00    -0.000 C 
BRANCH  15  16
ATOM     16  C   UNL     1     -37.180  20.506   5.071  1.00  0.00    -0.000 C 
BRANCH  16  17
ATOM     17  C   UNL     1     -38.655  20.405   5.466  1.00  0.00    -0.000 C 
BRANCH  17  18
ATOM     18  C   UNL     1     -38.809  19.928   6.912  1.00  0.00    -0.000 C 
BRANCH  18  19
ATOM     19  C   UNL     1     -39.720  20.826   7.753  1.00  0.00    -0.003 C 
ATOM     20  C   UNL     1     -39.606  22.303   7.406  1.00  0.00     0.004 C 
ENDBRANCH  18  19
ENDBRANCH  17  18
ENDBRANCH  16  17
ENDBRANCH  15  16
ENDBRANCH  14  15
ENDBRANCH  13  14
ENDBRANCH  12  13
ENDBRANCH   1  12
TORSDOF 16
ENDMDL
MODEL 8
REMARK VINA RESULT:    -6.130      2.613      4.854
REMARK INTER + INTRA:         -14.107
REMARK INTER:                 -11.689
REMARK INTRA:                  -2.418
REMARK UNBOUND:                -2.243
REMARK SMILES CCCCCCCCCCCCCCCCCC(=O)[O-]
REMARK SMILES IDX 10 1 11 2 12 3 13 4 14 5 15 6 16 7 17 8 18 9 19 10 20 11
REMARK SMILES IDX 9 12 8 13 7 14 6 15 5 16 4 17 3 18 2 19 1 20
REMARK H PARENT
REMARK INDEX MAP 4 1 6 2 8 3 10 4 12 5 14 6 16 7 18 8 20 9 2 10 1 11 3 12 5 13
REMARK INDEX MAP 7 14 9 15 11 16 13 17 15 18 17 19 19 20
ROOT
ATOM      1  C   UNL     1     -32.863  20.390   7.119  1.00  0.00     0.000 C 
ENDROOT
BRANCH   1   2
ATOM      2  C   UNL     1     -32.553  19.314   6.071  1.00  0.00     0.000 C 
BRANCH   2   3
ATOM      3  C   UNL     1     -32.964  19.731   4.655  1.00  0.00     0.000 C 
BRANCH   3   4
ATOM      4  C   UNL     1     -33.971  20.886   4.628  1.00  0.00     0.000 C 
BRANCH   4   5
ATOM      5  C   UNL     1     -35.442  20.490   4.468  1.00  0.00     0.000 C 
BRANCH   5   6
ATOM      6  C   UNL     1     -36.443  21.284   5.315  1.00  0.00     0.000 C 
BRANCH   6   7
ATOM      7  C   UNL     1     -37.717  20.503   5.653  1.00  0.00     0.006 C 
BRANCH   7   8
ATOM      8  C   UNL     1     -38.152  20.708   7.102  1.00  0.00     0.053 C 
BRANCH   8   9
ATOM      9  C   UNL     1     -39.579  21.170   7.219  1.00  0.00     0.041 C 
ATOM     10  O   UNL     1     -39.986  22.301   7.017  1.00  0.00    -0.550 OA
ATOM     11  O   UNL     1     -40.428  20.185   7.560  1.00  0.00    -0.550 OA
ENDBRANCH   8   9
ENDBRANCH   7   8
ENDBRANCH   6   7
ENDBRANCH   5   6
ENDBRANCH   4   5
ENDBRANCH   3   4
ENDBRANCH   2   3
ENDBRANCH   1   2
BRANCH   1  12
ATOM     12  C   UNL     1     -31.672  21.271   7.518  1.00  0.00     0.000 C 
BRANCH  12  13
ATOM     13  C   UNL     1     -31.672  22.658   6.878  1.00  0.00    -0.000 C 
BRANCH  13  14
ATOM     14  C   UNL     1     -32.101  23.772   7.838  1.00  0.00    -0.000 C 
BRANCH  14  15
ATOM     15  C   UNL     1     -33.189  24.718   7.317  1.00  0.00    -0.000 C 
BRANCH  15  16
ATOM     16  C   UNL     1     -34.485  24.047   6.849  1.00  0.00    -0.000 C 
BRANCH  16  17
ATOM     17  C   UNL     1     -35.508  23.853   7.971  1.00  0.00    -0.000 C 
BRANCH  17  18
ATOM     18  C   UNL     1     -35.380  22.465   8.603  1.00  0.00    -0.000 C 
BRANCH  18  19
ATOM     19  C   UNL     1     -34.697  22.484   9.973  1.00  0.00    -0.003 C 
ATOM     20  C   UNL     1     -34.617  21.114  10.630  1.00  0.00     0.004 C 
ENDBRANCH  18  19
ENDBRANCH  17  18
ENDBRANCH  16  17
ENDBRANCH  15  16
ENDBRANCH  14  15
ENDBRANCH  13  14
ENDBRANCH  12  13
ENDBRANCH   1  12
TORSDOF 16
ENDMDL
MODEL 9
REMARK VINA RESULT:    -6.123      2.484      4.684
REMARK INTER + INTRA:         -14.093
REMARK INTER:                 -11.511
REMARK INTRA:                  -2.582
REMARK UNBOUND:                -2.243
REMARK SMILES CCCCCCCCCCCCCCCCCC(=O)[O-]
REMARK SMILES IDX 10 1 11 2 12 3 13 4 14 5 15 6 16 7 17 8 18 9 19 10 20 11
REMARK SMILES IDX 9 12 8 13 7 14 6 15 5 16 4 17 3 18 2 19 1 20
REMARK H PARENT
REMARK INDEX MAP 4 1 6 2 8 3 10 4 12 5 14 6 16 7 18 8 20 9 2 10 1 11 3 12 5 13
REMARK INDEX MAP 7 14 9 15 11 16 13 17 15 18 17 19 19 20
ROOT
ATOM      1  C   UNL     1     -31.950  23.017   6.408  1.00  0.00     0.000 C 
ENDROOT
BRANCH   1   2
ATOM      2  C   UNL     1     -31.695  21.733   7.207  1.00  0.00     0.000 C 
BRANCH   2   3
ATOM      3  C   UNL     1     -32.589  20.572   6.762  1.00  0.00     0.000 C 
BRANCH   3   4
ATOM      4  C   UNL     1     -33.452  20.900   5.539  1.00  0.00     0.000 C 
BRANCH   4   5
ATOM      5  C   UNL     1     -34.860  20.296   5.528  1.00  0.00     0.000 C 
BRANCH   5   6
ATOM      6  C   UNL     1     -35.997  21.258   5.168  1.00  0.00     0.000 C 
BRANCH   6   7
ATOM      7  C   UNL     1     -37.391  20.704   5.476  1.00  0.00     0.006 C 
BRANCH   7   8
ATOM      8  C   UNL     1     -37.672  20.650   6.976  1.00  0.00     0.053 C 
BRANCH   8   9
ATOM      9  C   UNL     1     -39.109  20.944   7.308  1.00  0.00     0.041 C 
ATOM     10  O   UNL     1     -39.736  20.492   8.251  1.00  0.00    -0.550 OA
ATOM     11  O   UNL     1     -39.683  21.811   6.454  1.00  0.00    -0.550 OA
ENDBRANCH   8   9
ENDBRANCH   7   8
ENDBRANCH   6   7
ENDBRANCH   5   6
ENDBRANCH   4   5
ENDBRANCH   3   4
ENDBRANCH   2   3
ENDBRANCH   1   2
BRANCH   1  12
ATOM     12  C   UNL     1     -32.090  24.290   7.252  1.00  0.00     0.000 C 
BRANCH  12  13
ATOM     13  C   UNL     1     -33.435  25.000   7.103  1.00  0.00    -0.000 C 
BRANCH  13  14
ATOM     14  C   UNL     1     -34.605  24.043   6.855  1.00  0.00    -0.000 C 
BRANCH  14  15
ATOM     15  C   UNL     1     -35.437  23.675   8.088  1.00  0.00    -0.000 C 
BRANCH  15  16
ATOM     16  C   UNL     1     -34.936  22.471   8.892  1.00  0.00    -0.000 C 
BRANCH  16  17
ATOM     17  C   UNL     1     -34.069  22.860  10.092  1.00  0.00    -0.000 C 
BRANCH  17  18
ATOM     18  C   UNL     1     -34.162  21.812  11.205  1.00  0.00    -0.000 C 
BRANCH  18  19
ATOM     19  C   UNL     1     -34.921  20.551  10.787  1.00  0.00    -0.003 C 
ATOM     20  C   UNL     1     -34.218  19.260  11.178  1.00  0.00     0.004 C 
ENDBRANCH  18  19
ENDBRANCH  17  18
ENDBRANCH  16  17
ENDBRANCH  15  16
ENDBRANCH  14  15
ENDBRANCH  13  14
ENDBRANCH  12  13
ENDBRANCH   1  12
TORSDOF 16
ENDMDL
MODEL 10
REMARK VINA RESULT:    -6.123      1.363      3.753
REMARK INTER + INTRA:         -14.092
REMARK INTER:                 -11.583
REMARK INTRA:                  -2.510
REMARK UNBOUND:                -2.243
REMARK SMILES CCCCCCCCCCCCCCCCCC(=O)[O-]
REMARK SMILES IDX 10 1 11 2 12 3 13 4 14 5 15 6 16 7 17 8 18 9 19 10 20 11
REMARK SMILES IDX 9 12 8 13 7 14 6 15 5 16 4 17 3 18 2 19 1 20
REMARK H PARENT
REMARK INDEX MAP 4 1 6 2 8 3 10 4 12 5 14 6 16 7 18 8 20 9 2 10 1 11 3 12 5 13
REMARK INDEX MAP 7 14 9 15 11 16 13 17 15 18 17 19 19 20
ROOT
ATOM      1  C   UNL     1     -32.883  19.178   8.062  1.00  0.00     0.000 C 
ENDROOT
BRANCH   1   2
ATOM      2  C   UNL     1     -34.248  19.427   8.715  1.00  0.00     0.000 C 
BRANCH   2   3
ATOM      3  C   UNL     1     -34.169  19.497  10.243  1.00  0.00     0.000 C 
BRANCH   3   4
ATOM      4  C   UNL     1     -34.530  20.874  10.811  1.00  0.00     0.000 C 
BRANCH   4   5
ATOM      5  C   UNL     1     -34.683  22.003   9.788  1.00  0.00     0.000 C 
BRANCH   5   6
ATOM      6  C   UNL     1     -33.581  23.068   9.797  1.00  0.00     0.000 C 
BRANCH   6   7
ATOM      7  C   UNL     1     -32.485  22.827   8.755  1.00  0.00     0.006 C 
BRANCH   7   8
ATOM      8  C   UNL     1     -32.031  24.122   8.084  1.00  0.00     0.053 C 
BRANCH   8   9
ATOM      9  C   UNL     1     -32.461  24.211   6.646  1.00  0.00     0.041 C 
ATOM     10  O   UNL     1     -31.894  23.704   5.693  1.00  0.00    -0.550 OA
ATOM     11  O   UNL     1     -33.597  24.911   6.475  1.00  0.00    -0.550 OA
ENDBRANCH   8   9
ENDBRANCH   7   8
ENDBRANCH   6   7
ENDBRANCH   5   6
ENDBRANCH   4   5
ENDBRANCH   3   4
ENDBRANCH   2   3
ENDBRANCH   1   2
BRANCH   1  12
ATOM     12  C   UNL     1     -32.897  18.198   6.882  1.00  0.00     0.000 C 
BRANCH  12  13
ATOM     13  C   UNL     1     -32.416  18.796   5.561  1.00  0.00    -0.000 C 
BRANCH  13  14
ATOM     14  C   UNL     1     -32.661  20.304   5.449  1.00  0.00    -0.000 C 
BRANCH  14  15
ATOM     15  C   UNL     1     -33.675  20.737   4.386  1.00  0.00    -0.000 C 
BRANCH  15  16
ATOM     16  C   UNL     1     -35.103  20.976   4.887  1.00  0.00    -0.000 C 
BRANCH  16  17
ATOM     17  C   UNL     1     -35.169  21.850   6.142  1.00  0.00    -0.000 C 
BRANCH  17  18
ATOM     18  C   UNL     1     -36.581  21.864   6.733  1.00  0.00    -0.000 C 
BRANCH  18  19
ATOM     19  C   UNL     1     -37.323  20.536   6.563  1.00  0.00    -0.003 C 
ATOM     20  C   UNL     1     -38.642  20.476   7.318  1.00  0.00     0.004 C 
ENDBRANCH  18  19
ENDBRANCH  17  18
ENDBRANCH  16  17
ENDBRANCH  15  16
ENDBRANCH  14  15
ENDBRANCH  13  14
ENDBRANCH  12  13
ENDBRANCH   1  12
TORSDOF 16
ENDMDL
MODEL 11
REMARK VINA RESULT:    -6.068      2.470      5.270
REMARK INTER + INTRA:         -13.987
REMARK INTER:                 -11.420
REMARK INTRA:                  -2.566
REMARK UNBOUND:                -2.243
REMARK SMILES CCCCCCCCCCCCCCCCCC(=O)[O-]
REMARK SMILES IDX 10 1 11 2 12 3 13 4 14 5 15 6 16 7 17 8 18 9 19 10 20 11
REMARK SMILES IDX 9 12 8 13 7 14 6 15 5 16 4 17 3 18 2 19 1 20
REMARK H PARENT
REMARK INDEX MAP 4 1 6 2 8 3 10 4 12 5 14 6 16 7 18 8 20 9 2 10 1 11 3 12 5 13
REMARK INDEX MAP 7 14 9 15 11 16 13 17 15 18 17 19 19 20
ROOT
ATOM      1  C   UNL     1     -31.758  22.184   7.245  1.00  0.00     0.000 C 
ENDROOT
BRANCH   1   2
ATOM      2  C   UNL     1     -32.116  23.471   7.999  1.00  0.00     0.000 C 
BRANCH   2   3
ATOM      3  C   UNL     1     -33.532  23.441   8.583  1.00  0.00     0.000 C 
BRANCH   3   4
ATOM      4  C   UNL     1     -34.578  24.105   7.681  1.00  0.00     0.000 C 
BRANCH   4   5
ATOM      5  C   UNL     1     -35.933  23.394   7.589  1.00  0.00     0.000 C 
BRANCH   5   6
ATOM      6  C   UNL     1     -35.909  21.878   7.810  1.00  0.00     0.000 C 
BRANCH   6   7
ATOM      7  C   UNL     1     -36.784  21.100   6.823  1.00  0.00     0.006 C 
BRANCH   7   8
ATOM      8  C   UNL     1     -38.159  20.775   7.402  1.00  0.00     0.053 C 
BRANCH   8   9
ATOM      9  C   UNL     1     -39.280  21.110   6.457  1.00  0.00     0.041 C 
ATOM     10  O   UNL     1     -39.587  20.484   5.457  1.00  0.00    -0.550 OA
ATOM     11  O   UNL     1     -39.976  22.200   6.826  1.00  0.00    -0.550 OA
ENDBRANCH   8   9
ENDBRANCH   7   8
ENDBRANCH   6   7
ENDBRANCH   5   6
ENDBRANCH   4   5
ENDBRANCH   3   4
ENDBRANCH   2   3
ENDBRANCH   1   2
BRANCH   1  12
ATOM     12  C   UNL     1     -32.089  22.195   5.748  1.00  0.00     0.000 C 
BRANCH  12  13
ATOM     13  C   UNL     1     -33.296  21.341   5.363  1.00  0.00    -0.000 C 
BRANCH  13  14
ATOM     14  C   UNL     1     -33.032  20.413   4.173  1.00  0.00    -0.000 C 
BRANCH  14  15
ATOM     15  C   UNL     1     -32.277  19.118   4.493  1.00  0.00    -0.000 C 
BRANCH  15  16
ATOM     16  C   UNL     1     -32.709  18.396   5.773  1.00  0.00    -0.000 C 
BRANCH  16  17
ATOM     17  C   UNL     1     -31.587  18.270   6.807  1.00  0.00    -0.000 C 
BRANCH  17  18
ATOM     18  C   UNL     1     -32.061  18.709   8.195  1.00  0.00    -0.000 C 
BRANCH  18  19
ATOM     19  C   UNL     1     -33.555  19.038   8.248  1.00  0.00    -0.003 C 
ATOM     20  C   UNL     1     -34.039  19.444   9.633  1.00  0.00     0.004 C 
ENDBRANCH  18  19
ENDBRANCH  17  18
ENDBRANCH  16  17
ENDBRANCH  15  16
ENDBRANCH  14  15
ENDBRANCH  13  14
ENDBRANCH  12  13
ENDBRANCH   1  12
TORSDOF 16
ENDMDL
MODEL 12
REMARK VINA RESULT:    -6.068      2.039      3.688
REMARK INTER + INTRA:         -13.986
REMARK INTER:                 -11.302
REMARK INTRA:                  -2.684
REMARK UNBOUND:                -2.243
REMARK SMILES CCCCCCCCCCCCCCCCCC(=O)[O-]
REMARK SMILES IDX 10 1 11 2 12 3 13 4 14 5 15 6 16 7 17 8 18 9 19 10 20 11
REMARK SMILES IDX 9 12 8 13 7 14 6 15 5 16 4 17 3 18 2 19 1 20
REMARK H PARENT
REMARK INDEX MAP 4 1 6 2 8 3 10 4 12 5 14 6 16 7 18 8 20 9 2 10 1 11 3 12 5 13
REMARK INDEX MAP 7 14 9 15 11 16 13 17 15 18 17 19 19 20
ROOT
ATOM      1  C   UNL     1     -31.807  23.389   7.558  1.00  0.00     0.000 C 
ENDROOT
BRANCH   1   2
ATOM      2  C   UNL     1     -32.918  24.245   8.179  1.00  0.00     0.000 C 
BRANCH   2   3
ATOM      3  C   UNL     1     -34.161  24.339   7.288  1.00  0.00     0.000 C 
BRANCH   3   4
ATOM      4  C   UNL     1     -35.288  23.392   7.711  1.00  0.00     0.000 C 
BRANCH   4   5
ATOM      5  C   UNL     1     -35.076  22.641   9.030  1.00  0.00     0.000 C 
BRANCH   5   6
ATOM      6  C   UNL     1     -35.217  21.117   8.962  1.00  0.00     0.000 C 
BRANCH   6   7
ATOM      7  C   UNL     1     -33.881  20.382   8.825  1.00  0.00     0.006 C 
BRANCH   7   8
ATOM      8  C   UNL     1     -34.057  18.955   8.311  1.00  0.00     0.053 C 
BRANCH   8   9
ATOM      9  C   UNL     1     -32.832  18.435   7.610  1.00  0.00     0.041 C 
ATOM     10  O   UNL     1     -32.797  17.937   6.498  1.00  0.00    -0.550 OA
ATOM     11  O   UNL     1     -31.706  18.588   8.330  1.00  0.00    -0.550 OA
ENDBRANCH   8   9
ENDBRANCH   7   8
ENDBRANCH   6   7
ENDBRANCH   5   6
ENDBRANCH   4   5
ENDBRANCH   3   4
ENDBRANCH   2   3
ENDBRANCH   1   2
BRANCH   1  12
ATOM     12  C   UNL     1     -32.056  22.953   6.109  1.00  0.00     0.000 C 
BRANCH  12  13
ATOM     13  C   UNL     1     -32.430  21.480   5.949  1.00  0.00    -0.000 C 
BRANCH  13  14
ATOM     14  C   UNL     1     -33.251  21.193   4.688  1.00  0.00    -0.000 C 
BRANCH  14  15
ATOM     15  C   UNL     1     -34.561  20.430   4.907  1.00  0.00    -0.000 C 
BRANCH  15  16
ATOM     16  C   UNL     1     -35.840  21.272   4.841  1.00  0.00    -0.000 C 
BRANCH  16  17
ATOM     17  C   UNL     1     -37.022  20.533   4.208  1.00  0.00    -0.000 C 
BRANCH  17  18
ATOM     18  C   UNL     1     -38.168  20.364   5.208  1.00  0.00    -0.000 C 
BRANCH  18  19
ATOM     19  C   UNL     1     -37.843  20.909   6.600  1.00  0.00    -0.003 C 
ATOM     20  C   UNL     1     -38.964  21.742   7.204  1.00  0.00     0.004 C 
ENDBRANCH  18  19
ENDBRANCH  17  18
ENDBRANCH  16  17
ENDBRANCH  15  16
ENDBRANCH  14  15
ENDBRANCH  13  14
ENDBRANCH  12  13
ENDBRANCH   1  12
TORSDOF 16
ENDMDL
MODEL 13
REMARK VINA RESULT:    -6.024      1.339      4.636
REMARK INTER + INTRA:         -13.901
REMARK INTER:                 -11.322
REMARK INTRA:                  -2.579
REMARK UNBOUND:                -2.243
REMARK SMILES CCCCCCCCCCCCCCCCCC(=O)[O-]
REMARK SMILES IDX 10 1 11 2 12 3 13 4 14 5 15 6 16 7 17 8 18 9 19 10 20 11
REMARK SMILES IDX 9 12 8 13 7 14 6 15 5 16 4 17 3 18 2 19 1 20
REMARK H PARENT
REMARK INDEX MAP 4 1 6 2 8 3 10 4 12 5 14 6 16 7 18 8 20 9 2 10 1 11 3 12 5 13
REMARK INDEX MAP 7 14 9 15 11 16 13 17 15 18 17 19 19 20
ROOT
ATOM      1  C   UNL     1     -31.772  22.578   7.886  1.00  0.00     0.000 C 
ENDROOT
BRANCH   1   2
ATOM      2  C   UNL     1     -32.252  24.008   8.168  1.00  0.00     0.000 C 
BRANCH   2   3
ATOM      3  C   UNL     1     -33.282  24.498   7.145  1.00  0.00     0.000 C 
BRANCH   3   4
ATOM      4  C   UNL     1     -34.731  24.203   7.549  1.00  0.00     0.000 C 
BRANCH   4   5
ATOM      5  C   UNL     1     -35.308  22.873   7.056  1.00  0.00     0.000 C 
BRANCH   5   6
ATOM      6  C   UNL     1     -36.768  22.597   7.431  1.00  0.00     0.000 C 
BRANCH   6   7
ATOM      7  C   UNL     1     -37.384  21.415   6.677  1.00  0.00     0.006 C 
BRANCH   7   8
ATOM      8  C   UNL     1     -36.326  20.557   5.986  1.00  0.00     0.053 C 
BRANCH   8   9
ATOM      9  C   UNL     1     -36.243  20.820   4.507  1.00  0.00     0.041 C 
ATOM     10  O   UNL     1     -35.271  21.245   3.907  1.00  0.00    -0.550 OA
ATOM     11  O   UNL     1     -37.375  20.512   3.850  1.00  0.00    -0.550 OA
ENDBRANCH   8   9
ENDBRANCH   7   8
ENDBRANCH   6   7
ENDBRANCH   5   6
ENDBRANCH   4   5
ENDBRANCH   3   4
ENDBRANCH   2   3
ENDBRANCH   1   2
BRANCH   1  12
ATOM     12  C   UNL     1     -31.834  22.150   6.415  1.00  0.00     0.000 C 
BRANCH  12  13
ATOM     13  C   UNL     1     -32.496  20.793   6.181  1.00  0.00    -0.000 C 
BRANCH  13  14
ATOM     14  C   UNL     1     -32.065  19.723   7.189  1.00  0.00    -0.000 C 
BRANCH  14  15
ATOM     15  C   UNL     1     -33.201  18.941   7.857  1.00  0.00    -0.000 C 
BRANCH  15  16
ATOM     16  C   UNL     1     -34.161  19.768   8.717  1.00  0.00    -0.000 C 
BRANCH  16  17
ATOM     17  C   UNL     1     -34.222  19.307  10.175  1.00  0.00    -0.000 C 
BRANCH  17  18
ATOM     18  C   UNL     1     -34.553  20.473  11.111  1.00  0.00    -0.000 C 
BRANCH  18  19
ATOM     19  C   UNL     1     -34.341  21.845  10.467  1.00  0.00    -0.003 C 
ATOM     20  C   UNL     1     -33.827  22.898  11.438  1.00  0.00     0.004 C 
ENDBRANCH  18  19
ENDBRANCH  17  18
ENDBRANCH  16  17
ENDBRANCH  15  16
ENDBRANCH  14  15
ENDBRANCH  13  14
ENDBRANCH  12  13
ENDBRANCH   1  12
TORSDOF 16
ENDMDL
MODEL 14
REMARK VINA RESULT:    -6.006      2.030      4.785
REMARK INTER + INTRA:         -13.867
REMARK INTER:                 -11.761
REMARK INTRA:                  -2.106
REMARK UNBOUND:                -2.243
REMARK SMILES CCCCCCCCCCCCCCCCCC(=O)[O-]
REMARK SMILES IDX 10 1 11 2 12 3 13 4 14 5 15 6 16 7 17 8 18 9 19 10 20 11
REMARK SMILES IDX 9 12 8 13 7 14 6 15 5 16 4 17 3 18 2 19 1 20
REMARK H PARENT
REMARK INDEX MAP 4 1 6 2 8 3 10 4 12 5 14 6 16 7 18 8 20 9 2 10 1 11 3 12 5 13
REMARK INDEX MAP 7 14 9 15 11 16 13 17 15 18 17 19 19 20
ROOT
ATOM      1  C   UNL     1     -37.669  20.403   5.486  1.00  0.00     0.000 C 
ENDROOT
BRANCH   1   2
ATOM      2  C   UNL     1     -37.371  21.232   6.742  1.00  0.00     0.000 C 
BRANCH   2   3
ATOM      3  C   UNL     1     -36.449  20.505   7.725  1.00  0.00     0.000 C 
BRANCH   3   4
ATOM      4  C   UNL     1     -35.508  21.444   8.487  1.00  0.00     0.000 C 
BRANCH   4   5
ATOM      5  C   UNL     1     -34.781  20.836   9.691  1.00  0.00     0.000 C 
BRANCH   5   6
ATOM      6  C   UNL     1     -34.162  19.452   9.469  1.00  0.00     0.000 C 
BRANCH   6   7
ATOM      7  C   UNL     1     -32.922  19.471   8.571  1.00  0.00     0.006 C 
BRANCH   7   8
ATOM      8  C   UNL     1     -32.979  18.400   7.484  1.00  0.00     0.053 C 
BRANCH   8   9
ATOM      9  C   UNL     1     -31.651  18.185   6.812  1.00  0.00     0.041 C 
ATOM     10  O   UNL     1     -30.567  18.122   7.365  1.00  0.00    -0.550 OA
ATOM     11  O   UNL     1     -31.752  18.033   5.479  1.00  0.00    -0.550 OA
ENDBRANCH   8   9
ENDBRANCH   7   8
ENDBRANCH   6   7
ENDBRANCH   5   6
ENDBRANCH   4   5
ENDBRANCH   3   4
ENDBRANCH   2   3
ENDBRANCH   1   2
BRANCH   1  12
ATOM     12  C   UNL     1     -36.774  20.710   4.278  1.00  0.00     0.000 C 
BRANCH  12  13
ATOM     13  C   UNL     1     -35.495  21.472   4.619  1.00  0.00    -0.000 C 
BRANCH  13  14
ATOM     14  C   UNL     1     -34.217  20.718   4.238  1.00  0.00    -0.000 C 
BRANCH  14  15
ATOM     15  C   UNL     1     -32.953  21.120   5.006  1.00  0.00    -0.000 C 
BRANCH  15  16
ATOM     16  C   UNL     1     -33.152  22.151   6.122  1.00  0.00    -0.000 C 
BRANCH  16  17
ATOM     17  C   UNL     1     -31.852  22.539   6.830  1.00  0.00    -0.000 C 
BRANCH  17  18
ATOM     18  C   UNL     1     -32.122  23.016   8.260  1.00  0.00    -0.000 C 
BRANCH  18  19
ATOM     19  C   UNL     1     -31.954  24.527   8.436  1.00  0.00    -0.003 C 
ATOM     20  C   UNL     1     -32.678  25.346   7.378  1.00  0.00     0.004 C 
ENDBRANCH  18  19
ENDBRANCH  17  18
ENDBRANCH  16  17
ENDBRANCH  15  16
ENDBRANCH  14  15
ENDBRANCH  13  14
ENDBRANCH  12  13
ENDBRANCH   1  12
TORSDOF 16
ENDMDL
MODEL 15
REMARK VINA RESULT:    -6.002      2.135      5.067
REMARK INTER + INTRA:         -13.859
REMARK INTER:                 -11.356
REMARK INTRA:                  -2.503
REMARK UNBOUND:                -2.243
REMARK SMILES CCCCCCCCCCCCCCCCCC(=O)[O-]
REMARK SMILES IDX 10 1 11 2 12 3 13 4 14 5 15 6 16 7 17 8 18 9 19 10 20 11
REMARK SMILES IDX 9 12 8 13 7 14 6 15 5 16 4 17 3 18 2 19 1 20
REMARK H PARENT
REMARK INDEX MAP 4 1 6 2 8 3 10 4 12 5 14 6 16 7 18 8 20 9 2 10 1 11 3 12 5 13
REMARK INDEX MAP 7 14 9 15 11 16 13 17 15 18 17 19 19 20
ROOT
ATOM      1  C   UNL     1     -32.854  22.832   9.275  1.00  0.00     0.000 C 
ENDROOT
BRANCH   1   2
ATOM      2  C   UNL     1     -32.475  24.159   8.605  1.00  0.00     0.000 C 
BRANCH   2   3
ATOM      3  C   UNL     1     -33.120  24.331   7.226  1.00  0.00     0.000 C 
BRANCH   3   4
ATOM      4  C   UNL     1     -34.646  24.196   7.246  1.00  0.00     0.000 C 
BRANCH   4   5
ATOM      5  C   UNL     1     -35.220  22.961   6.543  1.00  0.00     0.000 C 
BRANCH   5   6
ATOM      6  C   UNL     1     -36.484  22.363   7.170  1.00  0.00     0.000 C 
BRANCH   6   7
ATOM      7  C   UNL     1     -36.778  20.931   6.713  1.00  0.00     0.006 C 
BRANCH   7   8
ATOM      8  C   UNL     1     -38.153  20.450   7.169  1.00  0.00     0.053 C 
BRANCH   8   9
ATOM      9  C   UNL     1     -39.278  21.181   6.489  1.00  0.00     0.041 C 
ATOM     10  O   UNL     1     -39.996  22.026   6.995  1.00  0.00    -0.550 OA
ATOM     11  O   UNL     1     -39.432  20.833   5.199  1.00  0.00    -0.550 OA
ENDBRANCH   8   9
ENDBRANCH   7   8
ENDBRANCH   6   7
ENDBRANCH   5   6
ENDBRANCH   4   5
ENDBRANCH   3   4
ENDBRANCH   2   3
ENDBRANCH   1   2
BRANCH   1  12
ATOM     12  C   UNL     1     -33.699  22.965  10.548  1.00  0.00     0.000 C 
BRANCH  12  13
ATOM     13  C   UNL     1     -34.371  21.669  10.997  1.00  0.00    -0.000 C 
BRANCH  13  14
ATOM     14  C   UNL     1     -34.836  20.788   9.832  1.00  0.00    -0.000 C 
BRANCH  14  15
ATOM     15  C   UNL     1     -34.028  19.506   9.604  1.00  0.00    -0.000 C 
BRANCH  15  16
ATOM     16  C   UNL     1     -33.906  19.048   8.147  1.00  0.00    -0.000 C 
BRANCH  16  17
ATOM     17  C   UNL     1     -32.523  19.305   7.543  1.00  0.00    -0.000 C 
BRANCH  17  18
ATOM     18  C   UNL     1     -32.575  20.417   6.492  1.00  0.00    -0.000 C 
BRANCH  18  19
ATOM     19  C   UNL     1     -33.472  20.081   5.298  1.00  0.00    -0.003 C 
ATOM     20  C   UNL     1     -32.765  20.198   3.956  1.00  0.00     0.004 C 
ENDBRANCH  18  19
ENDBRANCH  17  18
ENDBRANCH  16  17
ENDBRANCH  15  16
ENDBRANCH  14  15
ENDBRANCH  13  14
ENDBRANCH  12  13
ENDBRANCH   1  12
TORSDOF 16
ENDMDL
MODEL 16
REMARK VINA RESULT:    -5.988      2.536      5.106
REMARK INTER + INTRA:         -13.831
REMARK INTER:                 -11.172
REMARK INTRA:                  -2.659
REMARK UNBOUND:                -2.243
REMARK SMILES CCCCCCCCCCCCCCCCCC(=O)[O-]
REMARK SMILES IDX 10 1 11 2 12 3 13 4 14 5 15 6 16 7 17 8 18 9 19 10 20 11
REMARK SMILES IDX 9 12 8 13 7 14 6 15 5 16 4 17 3 18 2 19 1 20
REMARK H PARENT
REMARK INDEX MAP 4 1 6 2 8 3 10 4 12 5 14 6 16 7 18 8 20 9 2 10 1 11 3 12 5 13
REMARK INDEX MAP 7 14 9 15 11 16 13 17 15 18 17 19 19 20
ROOT
ATOM      1  C   UNL     1     -32.011  22.008   7.328  1.00  0.00     0.000 C 
ENDROOT
BRANCH   1   2
ATOM      2  C   UNL     1     -32.507  22.350   5.917  1.00  0.00     0.000 C 
BRANCH   2   3
ATOM      3  C   UNL     1     -32.746  21.105   5.057  1.00  0.00     0.000 C 
BRANCH   3   4
ATOM      4  C   UNL     1     -34.187  20.982   4.548  1.00  0.00     0.000 C 
BRANCH   4   5
ATOM      5  C   UNL     1     -35.232  20.560   5.587  1.00  0.00     0.000 C 
BRANCH   5   6
ATOM      6  C   UNL     1     -36.046  21.696   6.215  1.00  0.00     0.000 C 
BRANCH   6   7
ATOM      7  C   UNL     1     -37.012  21.228   7.307  1.00  0.00     0.006 C 
BRANCH   7   8
ATOM      8  C   UNL     1     -38.162  20.397   6.743  1.00  0.00     0.053 C 
BRANCH   8   9
ATOM      9  C   UNL     1     -39.510  20.987   7.052  1.00  0.00     0.041 C 
ATOM     10  O   UNL     1     -39.850  22.142   6.860  1.00  0.00    -0.550 OA
ATOM     11  O   UNL     1     -40.376  20.093   7.564  1.00  0.00    -0.550 OA
ENDBRANCH   8   9
ENDBRANCH   7   8
ENDBRANCH   6   7
ENDBRANCH   5   6
ENDBRANCH   4   5
ENDBRANCH   3   4
ENDBRANCH   2   3
ENDBRANCH   1   2
BRANCH   1  12
ATOM     12  C   UNL     1     -32.316  23.064   8.398  1.00  0.00     0.000 C 
BRANCH  12  13
ATOM     13  C   UNL     1     -33.722  23.655   8.317  1.00  0.00    -0.000 C 
BRANCH  13  14
ATOM     14  C   UNL     1     -34.704  23.033   9.314  1.00  0.00    -0.000 C 
BRANCH  14  15
ATOM     15  C   UNL     1     -34.086  22.101  10.362  1.00  0.00    -0.000 C 
BRANCH  15  16
ATOM     16  C   UNL     1     -34.875  20.822  10.662  1.00  0.00    -0.000 C 
BRANCH  16  17
ATOM     17  C   UNL     1     -34.123  19.542  10.289  1.00  0.00    -0.000 C 
BRANCH  17  18
ATOM     18  C   UNL     1     -34.084  19.346   8.772  1.00  0.00    -0.000 C 
BRANCH  18  19
ATOM     19  C   UNL     1     -32.735  18.831   8.262  1.00  0.00    -0.003 C 
ATOM     20  C   UNL     1     -32.819  18.149   6.905  1.00  0.00     0.004 C 
ENDBRANCH  18  19
ENDBRANCH  17  18
ENDBRANCH  16  17
ENDBRANCH  15  16
ENDBRANCH  14  15
ENDBRANCH  13  14
ENDBRANCH  12  13
ENDBRANCH   1  12
TORSDOF 16
ENDMDL
MODEL 17
REMARK VINA RESULT:    -5.977      2.005      3.849
REMARK INTER + INTRA:         -13.810
REMARK INTER:                 -12.397
REMARK INTRA:                  -1.414
REMARK UNBOUND:                -2.243
REMARK SMILES CCCCCCCCCCCCCCCCCC(=O)[O-]
REMARK SMILES IDX 10 1 11 2 12 3 13 4 14 5 15 6 16 7 17 8 18 9 19 10 20 11
REMARK SMILES IDX 9 12 8 13 7 14 6 15 5 16 4 17 3 18 2 19 1 20
REMARK H PARENT
REMARK INDEX MAP 4 1 6 2 8 3 10 4 12 5 14 6 16 7 18 8 20 9 2 10 1 11 3 12 5 13
REMARK INDEX MAP 7 14 9 15 11 16 13 17 15 18 17 19 19 20
ROOT
ATOM      1  C   UNL     1     -33.989  24.242   6.891  1.00  0.00     0.000 C 
ENDROOT
BRANCH   1   2
ATOM      2  C   UNL     1     -32.982  25.236   7.485  1.00  0.00     0.000 C 
BRANCH   2   3
ATOM      3  C   UNL     1     -31.902  24.552   8.328  1.00  0.00     0.000 C 
BRANCH   3   4
ATOM      4  C   UNL     1     -32.101  23.038   8.463  1.00  0.00     0.000 C 
BRANCH   4   5
ATOM      5  C   UNL     1     -31.724  22.199   7.237  1.00  0.00     0.000 C 
BRANCH   5   6
ATOM      6  C   UNL     1     -31.817  20.680   7.413  1.00  0.00     0.000 C 
BRANCH   6   7
ATOM      7  C   UNL     1     -33.106  20.074   6.852  1.00  0.00     0.006 C 
BRANCH   7   8
ATOM      8  C   UNL     1     -33.526  20.726   5.537  1.00  0.00     0.053 C 
BRANCH   8   9
ATOM      9  C   UNL     1     -32.891  20.075   4.338  1.00  0.00     0.041 C 
ATOM     10  O   UNL     1     -32.302  19.008   4.328  1.00  0.00    -0.550 OA
ATOM     11  O   UNL     1     -33.049  20.784   3.206  1.00  0.00    -0.550 OA
ENDBRANCH   8   9
ENDBRANCH   7   8
ENDBRANCH   6   7
ENDBRANCH   5   6
ENDBRANCH   4   5
ENDBRANCH   3   4
ENDBRANCH   2   3
ENDBRANCH   1   2
BRANCH   1  12
ATOM     12  C   UNL     1     -35.341  24.177   7.613  1.00  0.00     0.000 C 
BRANCH  12  13
ATOM     13  C   UNL     1     -35.756  22.774   8.049  1.00  0.00    -0.000 C 
BRANCH  13  14
ATOM     14  C   UNL     1     -37.008  22.258   7.332  1.00  0.00    -0.000 C 
BRANCH  14  15
ATOM     15  C   UNL     1     -36.908  20.844   6.750  1.00  0.00    -0.000 C 
BRANCH  15  16
ATOM     16  C   UNL     1     -37.823  20.550   5.556  1.00  0.00    -0.000 C 
BRANCH  16  17
ATOM     17  C   UNL     1     -37.080  20.498   4.219  1.00  0.00    -0.000 C 
BRANCH  17  18
ATOM     18  C   UNL     1     -38.057  20.526   3.042  1.00  0.00    -0.000 C 
BRANCH  18  19
ATOM     19  C   UNL     1     -39.523  20.615   3.473  1.00  0.00    -0.003 C 
ATOM     20  C   UNL     1     -40.472  20.957   2.334  1.00  0.00     0.004 C 
ENDBRANCH  18  19
ENDBRANCH  17  18
ENDBRANCH  16  17
ENDBRANCH  15  16
ENDBRANCH  14  15
ENDBRANCH  13  14
ENDBRANCH  12  13
ENDBRANCH   1  12
TORSDOF 16
ENDMDL
MODEL 18
REMARK VINA RESULT:    -5.922      2.027      3.570
REMARK INTER + INTRA:         -13.704
REMARK INTER:                 -11.580
REMARK INTRA:                  -2.124
REMARK UNBOUND:                -2.243
REMARK SMILES CCCCCCCCCCCCCCCCCC(=O)[O-]
REMARK SMILES IDX 10 1 11 2 12 3 13 4 14 5 15 6 16 7 17 8 18 9 19 10 20 11
REMARK SMILES IDX 9 12 8 13 7 14 6 15 5 16 4 17 3 18 2 19 1 20
REMARK H PARENT
REMARK INDEX MAP 4 1 6 2 8 3 10 4 12 5 14 6 16 7 18 8 20 9 2 10 1 11 3 12 5 13
REMARK INDEX MAP 7 14 9 15 11 16 13 17 15 18 17 19 19 20
ROOT
ATOM      1  C   UNL     1     -32.578  23.220   9.031  1.00  0.00     0.000 C 
ENDROOT
BRANCH   1   2
ATOM      2  C   UNL     1     -32.718  24.321   7.972  1.00  0.00     0.000 C 
BRANCH   2   3
ATOM      3  C   UNL     1     -32.183  23.895   6.601  1.00  0.00     0.000 C 
BRANCH   3   4
ATOM      4  C   UNL     1     -31.846  22.403   6.515  1.00  0.00     0.000 C 
BRANCH   4   5
ATOM      5  C   UNL     1     -32.988  21.481   6.074  1.00  0.00     0.000 C 
BRANCH   5   6
ATOM      6  C   UNL     1     -32.766  20.724   4.760  1.00  0.00     0.000 C 
BRANCH   6   7
ATOM      7  C   UNL     1     -32.477  19.232   4.953  1.00  0.00     0.006 C 
BRANCH   7   8
ATOM      8  C   UNL     1     -32.944  18.724   6.315  1.00  0.00     0.053 C 
BRANCH   8   9
ATOM      9  C   UNL     1     -31.801  18.363   7.223  1.00  0.00     0.041 C 
ATOM     10  O   UNL     1     -30.799  17.745   6.905  1.00  0.00    -0.550 OA
ATOM     11  O   UNL     1     -31.959  18.816   8.479  1.00  0.00    -0.550 OA
ENDBRANCH   8   9
ENDBRANCH   7   8
ENDBRANCH   6   7
ENDBRANCH   5   6
ENDBRANCH   4   5
ENDBRANCH   3   4
ENDBRANCH   2   3
ENDBRANCH   1   2
BRANCH   1  12
ATOM     12  C   UNL     1     -33.808  23.017   9.924  1.00  0.00     0.000 C 
BRANCH  12  13
ATOM     13  C   UNL     1     -34.317  21.578   9.979  1.00  0.00    -0.000 C 
BRANCH  13  14
ATOM     14  C   UNL     1     -35.233  21.211   8.807  1.00  0.00    -0.000 C 
BRANCH  14  15
ATOM     15  C   UNL     1     -35.979  22.379   8.153  1.00  0.00    -0.000 C 
BRANCH  15  16
ATOM     16  C   UNL     1     -36.337  22.195   6.675  1.00  0.00    -0.000 C 
BRANCH  16  17
ATOM     17  C   UNL     1     -36.640  20.743   6.299  1.00  0.00    -0.000 C 
BRANCH  17  18
ATOM     18  C   UNL     1     -38.133  20.543   6.024  1.00  0.00    -0.000 C 
BRANCH  18  19
ATOM     19  C   UNL     1     -38.943  20.220   7.283  1.00  0.00    -0.003 C 
ATOM     20  C   UNL     1     -39.871  21.345   7.714  1.00  0.00     0.004 C 
ENDBRANCH  18  19
ENDBRANCH  17  18
ENDBRANCH  16  17
ENDBRANCH  15  16
ENDBRANCH  14  15
ENDBRANCH  13  14
ENDBRANCH  12  13
ENDBRANCH   1  12
TORSDOF 16
ENDMDL
MODEL 19
REMARK VINA RESULT:    -5.880      2.410      4.995
REMARK INTER + INTRA:         -13.623
REMARK INTER:                 -11.310
REMARK INTRA:                  -2.313
REMARK UNBOUND:                -2.243
REMARK SMILES CCCCCCCCCCCCCCCCCC(=O)[O-]
REMARK SMILES IDX 10 1 11 2 12 3 13 4 14 5 15 6 16 7 17 8 18 9 19 10 20 11
REMARK SMILES IDX 9 12 8 13 7 14 6 15 5 16 4 17 3 18 2 19 1 20
REMARK H PARENT
REMARK INDEX MAP 4 1 6 2 8 3 10 4 12 5 14 6 16 7 18 8 20 9 2 10 1 11 3 12 5 13
REMARK INDEX MAP 7 14 9 15 11 16 13 17 15 18 17 19 19 20
ROOT
ATOM      1  C   UNL     1     -31.947  24.270   7.335  1.00  0.00     0.000 C 
ENDROOT
BRANCH   1   2
ATOM      2  C   UNL     1     -33.274  24.995   7.595  1.00  0.00     0.000 C 
BRANCH   2   3
ATOM      3  C   UNL     1     -34.464  24.314   6.912  1.00  0.00     0.000 C 
BRANCH   3   4
ATOM      4  C   UNL     1     -35.513  23.786   7.896  1.00  0.00     0.000 C 
BRANCH   4   5
ATOM      5  C   UNL     1     -36.364  22.610   7.405  1.00  0.00     0.000 C 
BRANCH   5   6
ATOM      6  C   UNL     1     -35.857  21.898   6.146  1.00  0.00     0.000 C 
BRANCH   6   7
ATOM      7  C   UNL     1     -36.745  20.734   5.699  1.00  0.00     0.006 C 
BRANCH   7   8
ATOM      8  C   UNL     1     -37.787  20.365   6.752  1.00  0.00     0.053 C 
BRANCH   8   9
ATOM      9  C   UNL     1     -39.193  20.662   6.307  1.00  0.00     0.041 C 
ATOM     10  O   UNL     1     -39.594  20.675   5.156  1.00  0.00    -0.550 OA
ATOM     11  O   UNL     1     -40.032  20.904   7.330  1.00  0.00    -0.550 OA
ENDBRANCH   8   9
ENDBRANCH   7   8
ENDBRANCH   6   7
ENDBRANCH   5   6
ENDBRANCH   4   5
ENDBRANCH   3   4
ENDBRANCH   2   3
ENDBRANCH   1   2
BRANCH   1  12
ATOM     12  C   UNL     1     -32.029  23.101   6.346  1.00  0.00     0.000 C 
BRANCH  12  13
ATOM     13  C   UNL     1     -31.914  21.721   6.991  1.00  0.00    -0.000 C 
BRANCH  13  14
ATOM     14  C   UNL     1     -32.422  20.585   6.096  1.00  0.00    -0.000 C 
BRANCH  14  15
ATOM     15  C   UNL     1     -32.622  19.232   6.787  1.00  0.00    -0.000 C 
BRANCH  15  16
ATOM     16  C   UNL     1     -33.947  19.057   7.535  1.00  0.00    -0.000 C 
BRANCH  16  17
ATOM     17  C   UNL     1     -33.811  19.198   9.053  1.00  0.00    -0.000 C 
BRANCH  17  18
ATOM     18  C   UNL     1     -34.357  20.544   9.535  1.00  0.00    -0.000 C 
BRANCH  18  19
ATOM     19  C   UNL     1     -34.691  20.562  11.029  1.00  0.00    -0.003 C 
ATOM     20  C   UNL     1     -34.289  19.288  11.757  1.00  0.00     0.004 C 
ENDBRANCH  18  19
ENDBRANCH  17  18
ENDBRANCH  16  17
ENDBRANCH  15  16
ENDBRANCH  14  15
ENDBRANCH  13  14
ENDBRANCH  12  13
ENDBRANCH   1  12
TORSDOF 16
ENDMDL
MODEL 20
REMARK VINA RESULT:    -5.877      2.432      5.231
REMARK INTER + INTRA:         -13.616
REMARK INTER:                 -11.231
REMARK INTRA:                  -2.385
REMARK UNBOUND:                -2.243
REMARK SMILES CCCCCCCCCCCCCCCCCC(=O)[O-]
REMARK SMILES IDX 10 1 11 2 12 3 13 4 14 5 15 6 16 7 17 8 18 9 19 10 20 11
REMARK SMILES IDX 9 12 8 13 7 14 6 15 5 16 4 17 3 18 2 19 1 20
REMARK H PARENT
REMARK INDEX MAP 4 1 6 2 8 3 10 4 12 5 14 6 16 7 18 8 20 9 2 10 1 11 3 12 5 13
REMARK INDEX MAP 7 14 9 15 11 16 13 17 15 18 17 19 19 20
ROOT
ATOM      1  C   UNL     1     -33.936  19.101   8.199  1.00  0.00     0.000 C 
ENDROOT
BRANCH   1   2
ATOM      2  C   UNL     1     -33.959  19.793   9.567  1.00  0.00     0.000 C 
BRANCH   2   3
ATOM      3  C   UNL     1     -35.153  20.738   9.732  1.00  0.00     0.000 C 
BRANCH   3   4
ATOM      4  C   UNL     1     -34.959  22.093   9.043  1.00  0.00     0.000 C 
BRANCH   4   5
ATOM      5  C   UNL     1     -36.057  22.511   8.060  1.00  0.00     0.000 C 
BRANCH   5   6
ATOM      6  C   UNL     1     -36.040  21.805   6.700  1.00  0.00     0.000 C 
BRANCH   6   7
ATOM      7  C   UNL     1     -37.419  21.321   6.242  1.00  0.00     0.006 C 
BRANCH   7   8
ATOM      8  C   UNL     1     -38.262  20.795   7.402  1.00  0.00     0.053 C 
BRANCH   8   9
ATOM      9  C   UNL     1     -39.602  20.277   6.958  1.00  0.00     0.041 C 
ATOM     10  O   UNL     1     -40.566  20.069   7.674  1.00  0.00    -0.550 OA
ATOM     11  O   UNL     1     -39.674  20.068   5.631  1.00  0.00    -0.550 OA
ENDBRANCH   8   9
ENDBRANCH   7   8
ENDBRANCH   6   7
ENDBRANCH   5   6
ENDBRANCH   4   5
ENDBRANCH   3   4
ENDBRANCH   2   3
ENDBRANCH   1   2
BRANCH   1  12
ATOM     12  C   UNL     1     -32.545  18.689   7.702  1.00  0.00     0.000 C 
BRANCH  12  13
ATOM     13  C   UNL     1     -32.305  18.946   6.215  1.00  0.00    -0.000 C 
BRANCH  13  14
ATOM     14  C   UNL     1     -33.393  19.805   5.562  1.00  0.00    -0.000 C 
BRANCH  14  15
ATOM     15  C   UNL     1     -32.935  21.167   5.030  1.00  0.00    -0.000 C 
BRANCH  15  16
ATOM     16  C   UNL     1     -31.852  21.873   5.852  1.00  0.00    -0.000 C 
BRANCH  16  17
ATOM     17  C   UNL     1     -32.404  22.635   7.059  1.00  0.00    -0.000 C 
BRANCH  17  18
ATOM     18  C   UNL     1     -32.913  24.021   6.652  1.00  0.00    -0.000 C 
BRANCH  18  19
ATOM     19  C   UNL     1     -32.581  25.112   7.673  1.00  0.00    -0.003 C 
ATOM     20  C   UNL     1     -31.897  24.584   8.925  1.00  0.00     0.004 C 
ENDBRANCH  18  19
ENDBRANCH  17  18
ENDBRANCH  16  17
ENDBRANCH  15  16
ENDBRANCH  14  15
ENDBRANCH  13  14
ENDBRANCH  12  13
ENDBRANCH   1  12
TORSDOF 16
ENDMDL
