REMARK SMILES CCCCC/C=C\C/C=C\CCCCCCCC(=O)[O-]
REMARK SMILES IDX 11 1 12 2 13 3 14 4 15 5 16 6 17 7 18 8 19 9 20 10 10 11
REMARK SMILES IDX 9 12 8 13 7 14 6 15 5 16 4 17 3 18 2 19 1 20
REMARK H PARENT
REMARK INDEX MAP 8 1 6 2 4 3 3 4 5 5 7 6 9 7 18 8 2 9 1 10 12 11 15 12 16 13
REMARK INDEX MAP 19 14 17 15 13 16 10 17 11 18 14 19 20 20
ROOT
ATOM      1  C   UNL     1       2.456   2.788  -0.122  1.00  0.00     0.027 C 
ENDROOT
BRANCH   1   2
ATOM      2  C   UNL     1       1.296   1.905  -0.596  1.00  0.00     0.004 C 
BRANCH   2   3
ATOM      3  C   UNL     1      -0.007   2.152   0.172  1.00  0.00     0.000 C 
BRANCH   3   4
ATOM      4  C   UNL     1      -1.182   1.313  -0.342  1.00  0.00     0.000 C 
BRANCH   4   5
ATOM      5  C   UNL     1      -2.478   1.541   0.440  1.00  0.00     0.000 C 
BRANCH   5   6
ATOM      6  C   UNL     1      -3.615   0.670  -0.108  1.00  0.00     0.006 C 
BRANCH   6   7
ATOM      7  C   UNL     1      -4.916   0.850   0.673  1.00  0.00     0.053 C 
BRANCH   7   8
ATOM      8  C   UNL     1      -6.049   0.006   0.141  1.00  0.00     0.041 C 
ATOM      9  O   UNL     1      -5.991  -0.762  -0.807  1.00  0.00    -0.550 OA
ATOM     10  O   UNL     1      -7.164   0.194   0.892  1.00  0.00    -0.550 OA
ENDBRANCH   7   8
ENDBRANCH   6   7
ENDBRANCH   5   6
ENDBRANCH   4   5
ENDBRANCH   3   4
ENDBRANCH   2   3
ENDBRANCH   1   2
BRANCH   1  11
ATOM     11  C   UNL     1       3.737   2.526  -0.862  1.00  0.00    -0.031 C 
ATOM     12  C   UNL     1       4.638   1.605  -0.488  1.00  0.00    -0.027 C 
BRANCH  12  13
ATOM     13  C   UNL     1       4.477   0.722   0.714  1.00  0.00     0.054 C 
BRANCH  13  14
ATOM     14  C   UNL     1       5.236  -0.565   0.558  1.00  0.00    -0.027 C 
ATOM     15  C   UNL     1       4.667  -1.777   0.654  1.00  0.00    -0.031 C 
BRANCH  15  16
ATOM     16  C   UNL     1       3.220  -2.088   0.927  1.00  0.00     0.027 C 
BRANCH  16  17
ATOM     17  C   UNL     1       2.312  -2.280  -0.294  1.00  0.00     0.004 C 
BRANCH  17  18
ATOM     18  C   UNL     1       0.880  -2.618   0.131  1.00  0.00     0.000 C 
BRANCH  18  19
ATOM     19  C   UNL     1      -0.055  -2.888  -1.050  1.00  0.00    -0.003 C 
ATOM     20  C   UNL     1      -1.460  -3.293  -0.632  1.00  0.00     0.004 C 
ENDBRANCH  18  19
ENDBRANCH  17  18
ENDBRANCH  16  17
ENDBRANCH  15  16
ENDBRANCH  13  14
ENDBRANCH  12  13
ENDBRANCH   1  11
TORSDOF 14
