MODEL 1
REMARK VINA RESULT:    -7.286      0.000      0.000
REMARK INTER + INTRA:         -10.599
REMARK INTER:                  -9.842
REMARK INTRA:                  -0.757
REMARK UNBOUND:                -0.757
REMARK SMILES O=c1c(-c2ccc(O)cc2)coc2c([C@@H]3O[C@H](CO)[C@@H](O)[C@H](O)[C@H]3O)c(O)ccc12
REMARK SMILES IDX 12 1 1 2 14 3 13 4 26 5 30 6 28 7 29 8 2 9 3 10 11 11 15 12
REMARK SMILES IDX 16 13 17 14 24 15 20 16 22 17 18 18 19 19 25 21 21 23 23 25
REMARK SMILES IDX 27 27 4 29 5 30 10 31 6 32 9 33 7 34 8 35
REMARK H PARENT 19 20 25 22 21 24 23 26 27 28 8 36
REMARK INDEX MAP 6 1 8 2 15 3 17 4 18 5 19 6 20 7 21 8 22 9 23 10 24 11 12 12
REMARK INDEX MAP 1 13 14 14 10 15 13 16 11 17 16 18 5 19 43 20 2 21 38 22 4 23
REMARK INDEX MAP 40 24 3 25 39 26 7 27 45 28 25 29 26 30 27 31 28 32 29 33
REMARK INDEX MAP 30 34 9 35 50 36
ROOT
ATOM      1  O   UNL     1      28.982 -11.113  -7.457  1.00  0.00    -0.463 OA
ATOM      2  O   UNL     1      29.549 -10.228 -11.399  1.00  0.00    -0.288 OA
ATOM      3  C   UNL     1      26.679 -10.612  -7.611  1.00  0.00     0.069 A 
ATOM      4  C   UNL     1      27.925 -10.711  -8.232  1.00  0.00     0.147 A 
ATOM      5  C   UNL     1      25.567 -10.208  -8.349  1.00  0.00     0.125 A 
ATOM      6  C   UNL     1      28.058 -10.407  -9.586  1.00  0.00     0.066 A 
ATOM      7  C   UNL     1      25.699  -9.903  -9.704  1.00  0.00     0.047 A 
ATOM      8  C   UNL     1      26.944 -10.001 -10.327  1.00  0.00     0.020 A 
ATOM      9  C   UNL     1      29.384 -10.515 -10.221  1.00  0.00     0.200 A 
ATOM     10  C   UNL     1      30.500 -10.973  -9.348  1.00  0.00     0.065 A 
ATOM     11  C   UNL     1      30.209 -11.230  -8.063  1.00  0.00     0.208 A 
ENDROOT
BRANCH   3  12
ATOM     12  C   UNL     1      26.527 -10.941  -6.139  1.00  0.00     0.188 C 
ATOM     13  O   UNL     1      25.838 -12.192  -6.042  1.00  0.00    -0.362 OA
ATOM     14  C   UNL     1      25.716 -12.654  -4.697  1.00  0.00     0.176 C 
ATOM     15  C   UNL     1      25.770  -9.841  -5.379  1.00  0.00     0.179 C 
ATOM     16  C   UNL     1      24.882 -11.668  -3.877  1.00  0.00     0.177 C 
ATOM     17  C   UNL     1      25.487 -10.265  -3.936  1.00  0.00     0.177 C 
BRANCH  14  18
ATOM     18  C   UNL     1      25.071 -14.036  -4.744  1.00  0.00     0.191 C 
BRANCH  18  19
ATOM     19  O   UNL     1      23.710 -13.910  -4.376  1.00  0.00    -0.394 OA
ATOM     20  H   UNL     1      23.237 -14.684  -4.727  1.00  0.00     0.210 HD
ENDBRANCH  18  19
ENDBRANCH  14  18
BRANCH  15  21
ATOM     21  O   UNL     1      26.572  -8.660  -5.368  1.00  0.00    -0.387 OA
ATOM     22  H   UNL     1      27.344  -8.817  -5.936  1.00  0.00     0.211 HD
ENDBRANCH  15  21
BRANCH  16  23
ATOM     23  O   UNL     1      24.835 -12.103  -2.522  1.00  0.00    -0.388 OA
ATOM     24  H   UNL     1      24.518 -11.362  -1.978  1.00  0.00     0.211 HD
ENDBRANCH  16  23
BRANCH  17  25
ATOM     25  O   UNL     1      24.555  -9.357  -3.347  1.00  0.00    -0.387 OA
ATOM     26  H   UNL     1      23.767  -9.342  -3.918  1.00  0.00     0.211 HD
ENDBRANCH  17  25
ENDBRANCH   3  12
BRANCH   5  27
ATOM     27  O   UNL     1      24.342 -10.105  -7.763  1.00  0.00    -0.507 OA
ATOM     28  H   UNL     1      23.751  -9.599  -8.346  1.00  0.00     0.293 HD
ENDBRANCH   5  27
BRANCH  10  29
ATOM     29  C   UNL     1      31.866 -11.161  -9.863  1.00  0.00    -0.011 A 
ATOM     30  C   UNL     1      32.771 -10.098  -9.857  1.00  0.00     0.013 A 
ATOM     31  C   UNL     1      32.261 -12.405 -10.360  1.00  0.00     0.013 A 
ATOM     32  C   UNL     1      34.065 -10.277 -10.345  1.00  0.00     0.047 A 
ATOM     33  C   UNL     1      33.556 -12.585 -10.848  1.00  0.00     0.047 A 
ATOM     34  C   UNL     1      34.458 -11.521 -10.840  1.00  0.00     0.115 A 
BRANCH  34  35
ATOM     35  O   UNL     1      35.720 -11.695 -11.317  1.00  0.00    -0.508 OA
ATOM     36  H   UNL     1      36.268 -10.941 -11.041  1.00  0.00     0.293 HD
ENDBRANCH  34  35
ENDBRANCH  10  29
TORSDOF 9
ENDMDL
MODEL 2
REMARK VINA RESULT:    -7.265      2.341      2.919
REMARK INTER + INTRA:         -10.570
REMARK INTER:                  -9.691
REMARK INTRA:                  -0.879
REMARK UNBOUND:                -0.757
REMARK SMILES O=c1c(-c2ccc(O)cc2)coc2c([C@@H]3O[C@H](CO)[C@@H](O)[C@H](O)[C@H]3O)c(O)ccc12
REMARK SMILES IDX 12 1 1 2 14 3 13 4 26 5 30 6 28 7 29 8 2 9 3 10 11 11 15 12
REMARK SMILES IDX 16 13 17 14 24 15 20 16 22 17 18 18 19 19 25 21 21 23 23 25
REMARK SMILES IDX 27 27 4 29 5 30 10 31 6 32 9 33 7 34 8 35
REMARK H PARENT 19 20 25 22 21 24 23 26 27 28 8 36
REMARK INDEX MAP 6 1 8 2 15 3 17 4 18 5 19 6 20 7 21 8 22 9 23 10 24 11 12 12
REMARK INDEX MAP 1 13 14 14 10 15 13 16 11 17 16 18 5 19 43 20 2 21 38 22 4 23
REMARK INDEX MAP 40 24 3 25 39 26 7 27 45 28 25 29 26 30 27 31 28 32 29 33
REMARK INDEX MAP 30 34 9 35 50 36
ROOT
ATOM      1  O   UNL     1      28.656 -10.945  -6.659  1.00  0.00    -0.463 OA
ATOM      2  O   UNL     1      30.879  -8.651  -9.198  1.00  0.00    -0.288 OA
ATOM      3  C   UNL     1      27.515  -9.045  -5.841  1.00  0.00     0.069 A 
ATOM      4  C   UNL     1      28.472  -9.587  -6.702  1.00  0.00     0.147 A 
ATOM      5  C   UNL     1      27.284  -7.670  -5.840  1.00  0.00     0.125 A 
ATOM      6  C   UNL     1      29.194  -8.756  -7.556  1.00  0.00     0.066 A 
ATOM      7  C   UNL     1      28.007  -6.837  -6.695  1.00  0.00     0.047 A 
ATOM      8  C   UNL     1      28.964  -7.377  -7.556  1.00  0.00     0.020 A 
ATOM      9  C   UNL     1      30.202  -9.349  -8.454  1.00  0.00     0.200 A 
ATOM     10  C   UNL     1      30.356 -10.829  -8.389  1.00  0.00     0.065 A 
ATOM     11  C   UNL     1      29.583 -11.489  -7.514  1.00  0.00     0.208 A 
ENDROOT
BRANCH   3  12
ATOM     12  C   UNL     1      26.726  -9.942  -4.909  1.00  0.00     0.188 C 
ATOM     13  O   UNL     1      25.423  -9.369  -4.753  1.00  0.00    -0.362 OA
ATOM     14  C   UNL     1      24.553 -10.180  -3.964  1.00  0.00     0.176 C 
ATOM     15  C   UNL     1      27.417 -10.104  -3.546  1.00  0.00     0.179 C 
ATOM     16  C   UNL     1      25.107 -10.316  -2.544  1.00  0.00     0.177 C 
ATOM     17  C   UNL     1      26.529 -10.878  -2.568  1.00  0.00     0.177 C 
BRANCH  14  18
ATOM     18  C   UNL     1      23.178  -9.518  -3.972  1.00  0.00     0.191 C 
BRANCH  18  19
ATOM     19  O   UNL     1      23.353  -8.117  -4.079  1.00  0.00    -0.394 OA
ATOM     20  H   UNL     1      24.284  -7.953  -4.306  1.00  0.00     0.210 HD
ENDBRANCH  18  19
ENDBRANCH  14  18
BRANCH  15  21
ATOM     21  O   UNL     1      28.636 -10.823  -3.734  1.00  0.00    -0.387 OA
ATOM     22  H   UNL     1      28.506 -11.725  -3.397  1.00  0.00     0.211 HD
ENDBRANCH  15  21
BRANCH  16  23
ATOM     23  O   UNL     1      24.269 -11.189  -1.793  1.00  0.00    -0.388 OA
ATOM     24  H   UNL     1      23.790 -10.656  -1.136  1.00  0.00     0.211 HD
ENDBRANCH  16  23
BRANCH  17  25
ATOM     25  O   UNL     1      27.067 -10.771  -1.250  1.00  0.00    -0.387 OA
ATOM     26  H   UNL     1      26.342 -10.948  -0.626  1.00  0.00     0.211 HD
ENDBRANCH  17  25
ENDBRANCH   3  12
BRANCH   5  27
ATOM     27  O   UNL     1      26.356  -7.120  -5.009  1.00  0.00    -0.507 OA
ATOM     28  H   UNL     1      25.981  -6.328  -5.429  1.00  0.00     0.293 HD
ENDBRANCH   5  27
BRANCH  10  29
ATOM     29  C   UNL     1      31.298 -11.553  -9.258  1.00  0.00    -0.011 A 
ATOM     30  C   UNL     1      32.672 -11.479  -9.019  1.00  0.00     0.013 A 
ATOM     31  C   UNL     1      30.820 -12.317 -10.325  1.00  0.00     0.013 A 
ATOM     32  C   UNL     1      33.564 -12.166  -9.842  1.00  0.00     0.047 A 
ATOM     33  C   UNL     1      31.712 -13.004 -11.149  1.00  0.00     0.047 A 
ATOM     34  C   UNL     1      33.084 -12.929 -10.908  1.00  0.00     0.115 A 
BRANCH  34  35
ATOM     35  O   UNL     1      33.955 -13.598 -11.712  1.00  0.00    -0.508 OA
ATOM     36  H   UNL     1      34.862 -13.419 -11.411  1.00  0.00     0.293 HD
ENDBRANCH  34  35
ENDBRANCH  10  29
TORSDOF 9
ENDMDL
MODEL 3
REMARK VINA RESULT:    -7.163      1.207      1.499
REMARK INTER + INTRA:         -10.432
REMARK INTER:                  -9.313
REMARK INTRA:                  -1.119
REMARK UNBOUND:                -0.757
REMARK SMILES O=c1c(-c2ccc(O)cc2)coc2c([C@@H]3O[C@H](CO)[C@@H](O)[C@H](O)[C@H]3O)c(O)ccc12
REMARK SMILES IDX 12 1 1 2 14 3 13 4 26 5 30 6 28 7 29 8 2 9 3 10 11 11 15 12
REMARK SMILES IDX 16 13 17 14 24 15 20 16 22 17 18 18 19 19 25 21 21 23 23 25
REMARK SMILES IDX 27 27 4 29 5 30 10 31 6 32 9 33 7 34 8 35
REMARK H PARENT 19 20 25 22 21 24 23 26 27 28 8 36
REMARK INDEX MAP 6 1 8 2 15 3 17 4 18 5 19 6 20 7 21 8 22 9 23 10 24 11 12 12
REMARK INDEX MAP 1 13 14 14 10 15 13 16 11 17 16 18 5 19 43 20 2 21 38 22 4 23
REMARK INDEX MAP 40 24 3 25 39 26 7 27 45 28 25 29 26 30 27 31 28 32 29 33
REMARK INDEX MAP 30 34 9 35 50 36
ROOT
ATOM      1  O   UNL     1      28.935 -10.102  -7.265  1.00  0.00    -0.463 OA
ATOM      2  O   UNL     1      29.493  -9.127 -11.188  1.00  0.00    -0.288 OA
ATOM      3  C   UNL     1      26.640 -10.523  -7.632  1.00  0.00     0.069 A 
ATOM      4  C   UNL     1      27.883 -10.147  -8.144  1.00  0.00     0.147 A 
ATOM      5  C   UNL     1      25.533 -10.587  -8.477  1.00  0.00     0.125 A 
ATOM      6  C   UNL     1      28.017  -9.836  -9.495  1.00  0.00     0.066 A 
ATOM      7  C   UNL     1      25.667 -10.275  -9.830  1.00  0.00     0.047 A 
ATOM      8  C   UNL     1      26.909  -9.898 -10.344  1.00  0.00     0.020 A 
ATOM      9  C   UNL     1      29.339  -9.437 -10.014  1.00  0.00     0.200 A 
ATOM     10  C   UNL     1      30.457  -9.420  -9.031  1.00  0.00     0.065 A 
ATOM     11  C   UNL     1      30.166  -9.750  -7.764  1.00  0.00     0.208 A 
ENDROOT
BRANCH   3  12
ATOM     12  C   UNL     1      26.487 -10.863  -6.162  1.00  0.00     0.188 C 
ATOM     13  O   UNL     1      25.859 -12.147  -6.076  1.00  0.00    -0.362 OA
ATOM     14  C   UNL     1      25.743 -12.618  -4.734  1.00  0.00     0.176 C 
ATOM     15  C   UNL     1      25.666  -9.804  -5.410  1.00  0.00     0.179 C 
ATOM     16  C   UNL     1      24.851 -11.676  -3.923  1.00  0.00     0.177 C 
ATOM     17  C   UNL     1      25.387 -10.245  -3.971  1.00  0.00     0.177 C 
BRANCH  14  18
ATOM     18  C   UNL     1      25.168 -14.030  -4.792  1.00  0.00     0.191 C 
BRANCH  18  19
ATOM     19  O   UNL     1      23.798 -13.973  -4.440  1.00  0.00    -0.394 OA
ATOM     20  H   UNL     1      23.364 -14.756  -4.819  1.00  0.00     0.210 HD
ENDBRANCH  18  19
ENDBRANCH  14  18
BRANCH  15  21
ATOM     21  O   UNL     1      26.409  -8.584  -5.386  1.00  0.00    -0.387 OA
ATOM     22  H   UNL     1      26.488  -8.264  -6.300  1.00  0.00     0.211 HD
ENDBRANCH  15  21
BRANCH  16  23
ATOM     23  O   UNL     1      24.809 -12.116  -2.569  1.00  0.00    -0.388 OA
ATOM     24  H   UNL     1      24.363 -12.980  -2.547  1.00  0.00     0.211 HD
ENDBRANCH  16  23
BRANCH  17  25
ATOM     25  O   UNL     1      24.403  -9.386  -3.393  1.00  0.00    -0.387 OA
ATOM     26  H   UNL     1      23.873  -9.021  -4.122  1.00  0.00     0.211 HD
ENDBRANCH  17  25
ENDBRANCH   3  12
BRANCH   5  27
ATOM     27  O   UNL     1      24.311 -10.951  -7.999  1.00  0.00    -0.507 OA
ATOM     28  H   UNL     1      23.732 -11.180  -8.745  1.00  0.00     0.293 HD
ENDBRANCH   5  27
BRANCH  10  29
ATOM     29  C   UNL     1      31.834  -9.080  -9.423  1.00  0.00    -0.011 A 
ATOM     30  C   UNL     1      32.239  -7.744  -9.475  1.00  0.00     0.013 A 
ATOM     31  C   UNL     1      32.742 -10.092  -9.745  1.00  0.00     0.013 A 
ATOM     32  C   UNL     1      33.544  -7.422  -9.846  1.00  0.00     0.047 A 
ATOM     33  C   UNL     1      34.047  -9.769 -10.116  1.00  0.00     0.047 A 
ATOM     34  C   UNL     1      34.449  -8.435 -10.167  1.00  0.00     0.115 A 
BRANCH  34  35
ATOM     35  O   UNL     1      35.722  -8.120 -10.531  1.00  0.00    -0.508 OA
ATOM     36  H   UNL     1      36.336  -8.728 -10.085  1.00  0.00     0.293 HD
ENDBRANCH  34  35
ENDBRANCH  10  29
TORSDOF 9
ENDMDL
MODEL 4
REMARK VINA RESULT:    -7.030      2.378      5.677
REMARK INTER + INTRA:         -10.253
REMARK INTER:                  -9.843
REMARK INTRA:                  -0.410
REMARK UNBOUND:                -0.757
REMARK SMILES O=c1c(-c2ccc(O)cc2)coc2c([C@@H]3O[C@H](CO)[C@@H](O)[C@H](O)[C@H]3O)c(O)ccc12
REMARK SMILES IDX 12 1 1 2 14 3 13 4 26 5 30 6 28 7 29 8 2 9 3 10 11 11 15 12
REMARK SMILES IDX 16 13 17 14 24 15 20 16 22 17 18 18 19 19 25 21 21 23 23 25
REMARK SMILES IDX 27 27 4 29 5 30 10 31 6 32 9 33 7 34 8 35
REMARK H PARENT 19 20 25 22 21 24 23 26 27 28 8 36
REMARK INDEX MAP 6 1 8 2 15 3 17 4 18 5 19 6 20 7 21 8 22 9 23 10 24 11 12 12
REMARK INDEX MAP 1 13 14 14 10 15 13 16 11 17 16 18 5 19 43 20 2 21 38 22 4 23
REMARK INDEX MAP 40 24 3 25 39 26 7 27 45 28 25 29 26 30 27 31 28 32 29 33
REMARK INDEX MAP 30 34 9 35 50 36
ROOT
ATOM      1  O   UNL     1      26.246  -9.986  -7.841  1.00  0.00    -0.463 OA
ATOM      2  O   UNL     1      27.992  -9.169 -11.437  1.00  0.00    -0.288 OA
ATOM      3  C   UNL     1      28.231 -10.977  -7.031  1.00  0.00     0.069 A 
ATOM      4  C   UNL     1      27.553 -10.333  -8.068  1.00  0.00     0.147 A 
ATOM      5  C   UNL     1      29.562 -11.355  -7.204  1.00  0.00     0.125 A 
ATOM      6  C   UNL     1      28.204 -10.070  -9.272  1.00  0.00     0.066 A 
ATOM      7  C   UNL     1      30.214 -11.092  -8.409  1.00  0.00     0.047 A 
ATOM      8  C   UNL     1      29.537 -10.448  -9.447  1.00  0.00     0.020 A 
ATOM      9  C   UNL     1      27.466  -9.392 -10.354  1.00  0.00     0.200 A 
ATOM     10  C   UNL     1      26.057  -9.015 -10.059  1.00  0.00     0.065 A 
ATOM     11  C   UNL     1      25.575  -9.336  -8.849  1.00  0.00     0.208 A 
ENDROOT
BRANCH   3  12
ATOM     12  C   UNL     1      27.530 -11.267  -5.719  1.00  0.00     0.188 C 
ATOM     13  O   UNL     1      26.614 -12.345  -5.945  1.00  0.00    -0.362 OA
ATOM     14  C   UNL     1      25.957 -12.772  -4.752  1.00  0.00     0.176 C 
ATOM     15  C   UNL     1      26.795 -10.033  -5.175  1.00  0.00     0.179 C 
ATOM     16  C   UNL     1      25.109 -11.632  -4.184  1.00  0.00     0.177 C 
ATOM     17  C   UNL     1      25.964 -10.389  -3.939  1.00  0.00     0.177 C 
BRANCH  14  18
ATOM     18  C   UNL     1      25.105 -13.986  -5.108  1.00  0.00     0.191 C 
BRANCH  18  19
ATOM     19  O   UNL     1      25.160 -14.905  -4.032  1.00  0.00    -0.394 OA
ATOM     20  H   UNL     1      24.281 -14.924  -3.616  1.00  0.00     0.210 HD
ENDBRANCH  18  19
ENDBRANCH  14  18
BRANCH  15  21
ATOM     21  O   UNL     1      27.764  -9.047  -4.814  1.00  0.00    -0.387 OA
ATOM     22  H   UNL     1      28.576  -9.229  -5.316  1.00  0.00     0.211 HD
ENDBRANCH  15  21
BRANCH  16  23
ATOM     23  O   UNL     1      24.523 -12.049  -2.954  1.00  0.00    -0.388 OA
ATOM     24  H   UNL     1      23.564 -11.898  -3.012  1.00  0.00     0.211 HD
ENDBRANCH  16  23
BRANCH  17  25
ATOM     25  O   UNL     1      25.088  -9.305  -3.627  1.00  0.00    -0.387 OA
ATOM     26  H   UNL     1      24.185  -9.664  -3.594  1.00  0.00     0.211 HD
ENDBRANCH  17  25
ENDBRANCH   3  12
BRANCH   5  27
ATOM     27  O   UNL     1      30.243 -11.984  -6.206  1.00  0.00    -0.507 OA
ATOM     28  H   UNL     1      31.198 -11.885  -6.360  1.00  0.00     0.293 HD
ENDBRANCH   5  27
BRANCH  10  29
ATOM     29  C   UNL     1      25.220  -8.300 -11.036  1.00  0.00    -0.011 A 
ATOM     30  C   UNL     1      24.625  -8.994 -12.091  1.00  0.00     0.013 A 
ATOM     31  C   UNL     1      25.019  -6.923 -10.911  1.00  0.00     0.013 A 
ATOM     32  C   UNL     1      23.832  -8.316 -13.017  1.00  0.00     0.047 A 
ATOM     33  C   UNL     1      24.226  -6.245 -11.837  1.00  0.00     0.047 A 
ATOM     34  C   UNL     1      23.633  -6.940 -12.890  1.00  0.00     0.115 A 
BRANCH  34  35
ATOM     35  O   UNL     1      22.860  -6.279 -13.794  1.00  0.00    -0.508 OA
ATOM     36  H   UNL     1      22.953  -6.708 -14.662  1.00  0.00     0.293 HD
ENDBRANCH  34  35
ENDBRANCH  10  29
TORSDOF 9
ENDMDL
MODEL 5
REMARK VINA RESULT:    -6.980      2.737      5.770
REMARK INTER + INTRA:         -10.186
REMARK INTER:                  -9.326
REMARK INTRA:                  -0.860
REMARK UNBOUND:                -0.757
REMARK SMILES O=c1c(-c2ccc(O)cc2)coc2c([C@@H]3O[C@H](CO)[C@@H](O)[C@H](O)[C@H]3O)c(O)ccc12
REMARK SMILES IDX 12 1 1 2 14 3 13 4 26 5 30 6 28 7 29 8 2 9 3 10 11 11 15 12
REMARK SMILES IDX 16 13 17 14 24 15 20 16 22 17 18 18 19 19 25 21 21 23 23 25
REMARK SMILES IDX 27 27 4 29 5 30 10 31 6 32 9 33 7 34 8 35
REMARK H PARENT 19 20 25 22 21 24 23 26 27 28 8 36
REMARK INDEX MAP 6 1 8 2 15 3 17 4 18 5 19 6 20 7 21 8 22 9 23 10 24 11 12 12
REMARK INDEX MAP 1 13 14 14 10 15 13 16 11 17 16 18 5 19 43 20 2 21 38 22 4 23
REMARK INDEX MAP 40 24 3 25 39 26 7 27 45 28 25 29 26 30 27 31 28 32 29 33
REMARK INDEX MAP 30 34 9 35 50 36
ROOT
ATOM      1  O   UNL     1      25.931  -9.438  -8.516  1.00  0.00    -0.463 OA
ATOM      2  O   UNL     1      28.485  -9.157 -11.686  1.00  0.00    -0.288 OA
ATOM      3  C   UNL     1      27.563 -10.548  -7.219  1.00  0.00     0.069 A 
ATOM      4  C   UNL     1      27.203  -9.939  -8.423  1.00  0.00     0.147 A 
ATOM      5  C   UNL     1      28.843 -11.077  -7.066  1.00  0.00     0.125 A 
ATOM      6  C   UNL     1      28.121  -9.862  -9.469  1.00  0.00     0.066 A 
ATOM      7  C   UNL     1      29.763 -11.000  -8.113  1.00  0.00     0.047 A 
ATOM      8  C   UNL     1      29.405 -10.393  -9.317  1.00  0.00     0.020 A 
ATOM      9  C   UNL     1      27.718  -9.219 -10.733  1.00  0.00     0.200 A 
ATOM     10  C   UNL     1      26.335  -8.670 -10.785  1.00  0.00     0.065 A 
ATOM     11  C   UNL     1      25.573  -8.822  -9.691  1.00  0.00     0.208 A 
ENDROOT
BRANCH   3  12
ATOM     12  C   UNL     1      26.569 -10.636  -6.078  1.00  0.00     0.188 C 
ATOM     13  O   UNL     1      27.300 -10.494  -4.854  1.00  0.00    -0.362 OA
ATOM     14  C   UNL     1      26.454 -10.469  -3.705  1.00  0.00     0.176 C 
ATOM     15  C   UNL     1      25.789 -11.959  -6.096  1.00  0.00     0.179 C 
ATOM     16  C   UNL     1      25.704 -11.796  -3.577  1.00  0.00     0.177 C 
ATOM     17  C   UNL     1      24.911 -12.097  -4.849  1.00  0.00     0.177 C 
BRANCH  14  18
ATOM     18  C   UNL     1      27.339 -10.201  -2.491  1.00  0.00     0.191 C 
BRANCH  18  19
ATOM     19  O   UNL     1      28.622  -9.813  -2.946  1.00  0.00    -0.394 OA
ATOM     20  H   UNL     1      28.663  -8.842  -2.916  1.00  0.00     0.210 HD
ENDBRANCH  18  19
ENDBRANCH  14  18
BRANCH  15  21
ATOM     21  O   UNL     1      24.955 -11.981  -7.255  1.00  0.00    -0.387 OA
ATOM     22  H   UNL     1      25.132 -11.173  -7.766  1.00  0.00     0.211 HD
ENDBRANCH  15  21
BRANCH  16  23
ATOM     23  O   UNL     1      24.808 -11.726  -2.471  1.00  0.00    -0.388 OA
ATOM     24  H   UNL     1      24.136 -11.052  -2.670  1.00  0.00     0.211 HD
ENDBRANCH  16  23
BRANCH  17  25
ATOM     25  O   UNL     1      24.421 -13.435  -4.758  1.00  0.00    -0.387 OA
ATOM     26  H   UNL     1      24.178 -13.716  -5.657  1.00  0.00     0.211 HD
ENDBRANCH  17  25
ENDBRANCH   3  12
BRANCH   5  27
ATOM     27  O   UNL     1      29.215 -11.674  -5.900  1.00  0.00    -0.507 OA
ATOM     28  H   UNL     1      29.910 -12.329  -6.084  1.00  0.00     0.293 HD
ENDBRANCH   5  27
BRANCH  10  29
ATOM     29  C   UNL     1      25.819  -7.969 -11.971  1.00  0.00    -0.011 A 
ATOM     30  C   UNL     1      24.842  -8.567 -12.770  1.00  0.00     0.013 A 
ATOM     31  C   UNL     1      26.305  -6.702 -12.303  1.00  0.00     0.013 A 
ATOM     32  C   UNL     1      24.352  -7.902 -13.894  1.00  0.00     0.047 A 
ATOM     33  C   UNL     1      25.815  -6.037 -13.427  1.00  0.00     0.047 A 
ATOM     34  C   UNL     1      24.839  -6.636 -14.223  1.00  0.00     0.115 A 
BRANCH  34  35
ATOM     35  O   UNL     1      24.362  -5.988 -15.320  1.00  0.00    -0.508 OA
ATOM     36  H   UNL     1      24.323  -6.614 -16.063  1.00  0.00     0.293 HD
ENDBRANCH  34  35
ENDBRANCH  10  29
TORSDOF 9
ENDMDL
MODEL 6
REMARK VINA RESULT:    -6.899      2.464      2.963
REMARK INTER + INTRA:         -10.076
REMARK INTER:                  -8.917
REMARK INTRA:                  -1.159
REMARK UNBOUND:                -0.757
REMARK SMILES O=c1c(-c2ccc(O)cc2)coc2c([C@@H]3O[C@H](CO)[C@@H](O)[C@H](O)[C@H]3O)c(O)ccc12
REMARK SMILES IDX 12 1 1 2 14 3 13 4 26 5 30 6 28 7 29 8 2 9 3 10 11 11 15 12
REMARK SMILES IDX 16 13 17 14 24 15 20 16 22 17 18 18 19 19 25 21 21 23 23 25
REMARK SMILES IDX 27 27 4 29 5 30 10 31 6 32 9 33 7 34 8 35
REMARK H PARENT 19 20 25 22 21 24 23 26 27 28 8 36
REMARK INDEX MAP 6 1 8 2 15 3 17 4 18 5 19 6 20 7 21 8 22 9 23 10 24 11 12 12
REMARK INDEX MAP 1 13 14 14 10 15 13 16 11 17 16 18 5 19 43 20 2 21 38 22 4 23
REMARK INDEX MAP 40 24 3 25 39 26 7 27 45 28 25 29 26 30 27 31 28 32 29 33
REMARK INDEX MAP 30 34 9 35 50 36
ROOT
ATOM      1  O   UNL     1      28.538  -9.057  -7.012  1.00  0.00    -0.463 OA
ATOM      2  O   UNL     1      29.055  -7.888 -10.887  1.00  0.00    -0.288 OA
ATOM      3  C   UNL     1      26.490 -10.109  -7.536  1.00  0.00     0.069 A 
ATOM      4  C   UNL     1      27.605  -9.384  -7.961  1.00  0.00     0.147 A 
ATOM      5  C   UNL     1      25.506 -10.469  -8.457  1.00  0.00     0.125 A 
ATOM      6  C   UNL     1      27.734  -9.021  -9.300  1.00  0.00     0.066 A 
ATOM      7  C   UNL     1      25.635 -10.106  -9.798  1.00  0.00     0.047 A 
ATOM      8  C   UNL     1      26.749  -9.381 -10.224  1.00  0.00     0.020 A 
ATOM      9  C   UNL     1      28.918  -8.252  -9.726  1.00  0.00     0.200 A 
ATOM     10  C   UNL     1      29.917  -7.935  -8.668  1.00  0.00     0.065 A 
ATOM     11  C   UNL     1      29.648  -8.359  -7.423  1.00  0.00     0.208 A 
ENDROOT
BRANCH   3  12
ATOM     12  C   UNL     1      26.342 -10.506  -6.081  1.00  0.00     0.188 C 
ATOM     13  O   UNL     1      25.844 -11.848  -6.046  1.00  0.00    -0.362 OA
ATOM     14  C   UNL     1      25.750 -12.369  -4.720  1.00  0.00     0.176 C 
ATOM     15  C   UNL     1      25.405  -9.557  -5.318  1.00  0.00     0.179 C 
ATOM     16  C   UNL     1      24.752 -11.546  -3.903  1.00  0.00     0.177 C 
ATOM     17  C   UNL     1      25.143 -10.067  -3.899  1.00  0.00     0.177 C 
BRANCH  14  18
ATOM     18  C   UNL     1      25.320 -13.829  -4.831  1.00  0.00     0.191 C 
BRANCH  18  19
ATOM     19  O   UNL     1      23.936 -13.914  -4.544  1.00  0.00    -0.394 OA
ATOM     20  H   UNL     1      23.565 -14.624  -5.094  1.00  0.00     0.210 HD
ENDBRANCH  18  19
ENDBRANCH  14  18
BRANCH  15  21
ATOM     21  O   UNL     1      26.021  -8.271  -5.243  1.00  0.00    -0.387 OA
ATOM     22  H   UNL     1      26.982  -8.403  -5.189  1.00  0.00     0.211 HD
ENDBRANCH  15  21
BRANCH  16  23
ATOM     23  O   UNL     1      24.728 -12.029  -2.563  1.00  0.00    -0.388 OA
ATOM     24  H   UNL     1      24.339 -12.920  -2.572  1.00  0.00     0.211 HD
ENDBRANCH  16  23
BRANCH  17  25
ATOM     25  O   UNL     1      24.067  -9.328  -3.319  1.00  0.00    -0.387 OA
ATOM     26  H   UNL     1      23.341  -9.955  -3.156  1.00  0.00     0.211 HD
ENDBRANCH  17  25
ENDBRANCH   3  12
BRANCH   5  27
ATOM     27  O   UNL     1      24.411 -11.176  -8.064  1.00  0.00    -0.507 OA
ATOM     28  H   UNL     1      24.562 -11.532  -7.172  1.00  0.00     0.293 HD
ENDBRANCH   5  27
BRANCH  10  29
ATOM     29  C   UNL     1      31.161  -7.208  -8.963  1.00  0.00    -0.011 A 
ATOM     30  C   UNL     1      32.307  -7.907  -9.349  1.00  0.00     0.013 A 
ATOM     31  C   UNL     1      31.201  -5.816  -8.859  1.00  0.00     0.013 A 
ATOM     32  C   UNL     1      33.487  -7.217  -9.629  1.00  0.00     0.047 A 
ATOM     33  C   UNL     1      32.381  -5.126  -9.140  1.00  0.00     0.047 A 
ATOM     34  C   UNL     1      33.524  -5.826  -9.525  1.00  0.00     0.115 A 
BRANCH  34  35
ATOM     35  O   UNL     1      34.675  -5.154  -9.797  1.00  0.00    -0.508 OA
ATOM     36  H   UNL     1      34.717  -4.976 -10.752  1.00  0.00     0.293 HD
ENDBRANCH  34  35
ENDBRANCH  10  29
TORSDOF 9
ENDMDL
MODEL 7
REMARK VINA RESULT:    -6.855      2.984      7.858
REMARK INTER + INTRA:         -10.017
REMARK INTER:                  -9.455
REMARK INTRA:                  -0.562
REMARK UNBOUND:                -0.757
REMARK SMILES O=c1c(-c2ccc(O)cc2)coc2c([C@@H]3O[C@H](CO)[C@@H](O)[C@H](O)[C@H]3O)c(O)ccc12
REMARK SMILES IDX 12 1 1 2 14 3 13 4 26 5 30 6 28 7 29 8 2 9 3 10 11 11 15 12
REMARK SMILES IDX 16 13 17 14 24 15 20 16 22 17 18 18 19 19 25 21 21 23 23 25
REMARK SMILES IDX 27 27 4 29 5 30 10 31 6 32 9 33 7 34 8 35
REMARK H PARENT 19 20 25 22 21 24 23 26 27 28 8 36
REMARK INDEX MAP 6 1 8 2 15 3 17 4 18 5 19 6 20 7 21 8 22 9 23 10 24 11 12 12
REMARK INDEX MAP 1 13 14 14 10 15 13 16 11 17 16 18 5 19 43 20 2 21 38 22 4 23
REMARK INDEX MAP 40 24 3 25 39 26 7 27 45 28 25 29 26 30 27 31 28 32 29 33
REMARK INDEX MAP 30 34 9 35 50 36
ROOT
ATOM      1  O   UNL     1      26.128  -8.818  -8.465  1.00  0.00    -0.463 OA
ATOM      2  O   UNL     1      28.477 -11.641  -6.687  1.00  0.00    -0.288 OA
ATOM      3  C   UNL     1      27.384  -8.940 -10.461  1.00  0.00     0.069 A 
ATOM      4  C   UNL     1      27.170  -9.383  -9.155  1.00  0.00     0.147 A 
ATOM      5  C   UNL     1      28.429  -9.477 -11.212  1.00  0.00     0.125 A 
ATOM      6  C   UNL     1      27.998 -10.358  -8.602  1.00  0.00     0.066 A 
ATOM      7  C   UNL     1      29.259 -10.454 -10.659  1.00  0.00     0.047 A 
ATOM      8  C   UNL     1      29.046 -10.897  -9.353  1.00  0.00     0.020 A 
ATOM      9  C   UNL     1      27.755 -10.808  -7.219  1.00  0.00     0.200 A 
ATOM     10  C   UNL     1      26.602 -10.184  -6.513  1.00  0.00     0.065 A 
ATOM     11  C   UNL     1      25.898  -9.260  -7.184  1.00  0.00     0.208 A 
ENDROOT
BRANCH   3  12
ATOM     12  C   UNL     1      26.488  -7.879 -11.068  1.00  0.00     0.188 C 
ATOM     13  O   UNL     1      26.664  -6.676 -10.312  1.00  0.00    -0.362 OA
ATOM     14  C   UNL     1      25.935  -5.573 -10.849  1.00  0.00     0.176 C 
ATOM     15  C   UNL     1      25.013  -8.308 -11.075  1.00  0.00     0.179 C 
ATOM     16  C   UNL     1      24.434  -5.864 -10.803  1.00  0.00     0.177 C 
ATOM     17  C   UNL     1      24.110  -7.163 -11.542  1.00  0.00     0.177 C 
BRANCH  14  18
ATOM     18  C   UNL     1      26.297  -4.340 -10.025  1.00  0.00     0.191 C 
BRANCH  18  19
ATOM     19  O   UNL     1      25.267  -4.112  -9.081  1.00  0.00    -0.394 OA
ATOM     20  H   UNL     1      24.580  -3.580  -9.518  1.00  0.00     0.210 HD
ENDBRANCH  18  19
ENDBRANCH  14  18
BRANCH  15  21
ATOM     21  O   UNL     1      24.863  -9.411 -11.969  1.00  0.00    -0.387 OA
ATOM     22  H   UNL     1      23.915  -9.616 -12.034  1.00  0.00     0.211 HD
ENDBRANCH  15  21
BRANCH  16  23
ATOM     23  O   UNL     1      23.727  -4.788 -11.413  1.00  0.00    -0.388 OA
ATOM     24  H   UNL     1      22.777  -4.994 -11.380  1.00  0.00     0.211 HD
ENDBRANCH  16  23
BRANCH  17  25
ATOM     25  O   UNL     1      22.747  -7.493 -11.275  1.00  0.00    -0.387 OA
ATOM     26  H   UNL     1      22.437  -8.056 -12.006  1.00  0.00     0.211 HD
ENDBRANCH  17  25
ENDBRANCH   3  12
BRANCH   5  27
ATOM     27  O   UNL     1      28.656  -9.060 -12.488  1.00  0.00    -0.507 OA
ATOM     28  H   UNL     1      27.812  -8.802 -12.895  1.00  0.00     0.293 HD
ENDBRANCH   5  27
BRANCH  10  29
ATOM     29  C   UNL     1      26.225 -10.570  -5.144  1.00  0.00    -0.011 A 
ATOM     30  C   UNL     1      26.918 -10.046  -4.051  1.00  0.00     0.013 A 
ATOM     31  C   UNL     1      25.172 -11.464  -4.933  1.00  0.00     0.013 A 
ATOM     32  C   UNL     1      26.560 -10.411  -2.753  1.00  0.00     0.047 A 
ATOM     33  C   UNL     1      24.815 -11.830  -3.635  1.00  0.00     0.047 A 
ATOM     34  C   UNL     1      25.508 -11.304  -2.545  1.00  0.00     0.115 A 
BRANCH  34  35
ATOM     35  O   UNL     1      25.160 -11.662  -1.279  1.00  0.00    -0.508 OA
ATOM     36  H   UNL     1      25.876 -12.196  -0.895  1.00  0.00     0.293 HD
ENDBRANCH  34  35
ENDBRANCH  10  29
TORSDOF 9
ENDMDL
MODEL 8
REMARK VINA RESULT:    -6.819      4.140      5.384
REMARK INTER + INTRA:          -9.968
REMARK INTER:                  -9.647
REMARK INTRA:                  -0.321
REMARK UNBOUND:                -0.757
REMARK SMILES O=c1c(-c2ccc(O)cc2)coc2c([C@@H]3O[C@H](CO)[C@@H](O)[C@H](O)[C@H]3O)c(O)ccc12
REMARK SMILES IDX 12 1 1 2 14 3 13 4 26 5 30 6 28 7 29 8 2 9 3 10 11 11 15 12
REMARK SMILES IDX 16 13 17 14 24 15 20 16 22 17 18 18 19 19 25 21 21 23 23 25
REMARK SMILES IDX 27 27 4 29 5 30 10 31 6 32 9 33 7 34 8 35
REMARK H PARENT 19 20 25 22 21 24 23 26 27 28 8 36
REMARK INDEX MAP 6 1 8 2 15 3 17 4 18 5 19 6 20 7 21 8 22 9 23 10 24 11 12 12
REMARK INDEX MAP 1 13 14 14 10 15 13 16 11 17 16 18 5 19 43 20 2 21 38 22 4 23
REMARK INDEX MAP 40 24 3 25 39 26 7 27 45 28 25 29 26 30 27 31 28 32 29 33
REMARK INDEX MAP 30 34 9 35 50 36
ROOT
ATOM      1  O   UNL     1      26.870  -8.086  -6.013  1.00  0.00    -0.463 OA
ATOM      2  O   UNL     1      28.366  -6.526  -9.474  1.00  0.00    -0.288 OA
ATOM      3  C   UNL     1      25.778  -9.817  -7.192  1.00  0.00     0.069 A 
ATOM      4  C   UNL     1      26.592  -8.683  -7.216  1.00  0.00     0.147 A 
ATOM      5  C   UNL     1      25.459 -10.466  -8.384  1.00  0.00     0.125 A 
ATOM      6  C   UNL     1      27.083  -8.201  -8.428  1.00  0.00     0.066 A 
ATOM      7  C   UNL     1      25.951  -9.984  -9.598  1.00  0.00     0.047 A 
ATOM      8  C   UNL     1      26.765  -8.850  -9.624  1.00  0.00     0.020 A 
ATOM      9  C   UNL     1      27.938  -6.999  -8.429  1.00  0.00     0.200 A 
ATOM     10  C   UNL     1      28.232  -6.394  -7.101  1.00  0.00     0.065 A 
ATOM     11  C   UNL     1      27.685  -6.980  -6.025  1.00  0.00     0.208 A 
ENDROOT
BRANCH   3  12
ATOM     12  C   UNL     1      25.239 -10.347  -5.879  1.00  0.00     0.188 C 
ATOM     13  O   UNL     1      24.238  -9.432  -5.418  1.00  0.00    -0.362 OA
ATOM     14  C   UNL     1      23.589  -9.875  -4.227  1.00  0.00     0.176 C 
ATOM     15  C   UNL     1      26.348 -10.516  -4.829  1.00  0.00     0.179 C 
ATOM     16  C   UNL     1      24.601  -9.976  -3.084  1.00  0.00     0.177 C 
ATOM     17  C   UNL     1      25.761 -10.896  -3.467  1.00  0.00     0.177 C 
BRANCH  14  18
ATOM     18  C   UNL     1      22.479  -8.876  -3.911  1.00  0.00     0.191 C 
BRANCH  18  19
ATOM     19  O   UNL     1      22.944  -7.575  -4.220  1.00  0.00    -0.394 OA
ATOM     20  H   UNL     1      22.192  -6.965  -4.130  1.00  0.00     0.210 HD
ENDBRANCH  18  19
ENDBRANCH  14  18
BRANCH  15  21
ATOM     21  O   UNL     1      27.230 -11.552  -5.260  1.00  0.00    -0.387 OA
ATOM     22  H   UNL     1      28.114 -11.360  -4.904  1.00  0.00     0.211 HD
ENDBRANCH  15  21
BRANCH  16  23
ATOM     23  O   UNL     1      23.954 -10.493  -1.926  1.00  0.00    -0.388 OA
ATOM     24  H   UNL     1      23.835  -9.762  -1.295  1.00  0.00     0.211 HD
ENDBRANCH  16  23
BRANCH  17  25
ATOM     25  O   UNL     1      26.770 -10.774  -2.463  1.00  0.00    -0.387 OA
ATOM     26  H   UNL     1      26.317 -10.680  -1.608  1.00  0.00     0.211 HD
ENDBRANCH  17  25
ENDBRANCH   3  12
BRANCH   5  27
ATOM     27  O   UNL     1      24.667 -11.574  -8.384  1.00  0.00    -0.507 OA
ATOM     28  H   UNL     1      24.084 -11.549  -9.161  1.00  0.00     0.293 HD
ENDBRANCH   5  27
BRANCH  10  29
ATOM     29  C   UNL     1      29.103  -5.217  -6.956  1.00  0.00    -0.011 A 
ATOM     30  C   UNL     1      30.478  -5.379  -6.779  1.00  0.00     0.013 A 
ATOM     31  C   UNL     1      28.556  -3.932  -6.996  1.00  0.00     0.013 A 
ATOM     32  C   UNL     1      31.303  -4.262  -6.642  1.00  0.00     0.047 A 
ATOM     33  C   UNL     1      29.381  -2.816  -6.859  1.00  0.00     0.047 A 
ATOM     34  C   UNL     1      30.754  -2.980  -6.682  1.00  0.00     0.115 A 
BRANCH  34  35
ATOM     35  O   UNL     1      31.559  -1.891  -6.547  1.00  0.00    -0.508 OA
ATOM     36  H   UNL     1      31.373  -1.466  -5.693  1.00  0.00     0.293 HD
ENDBRANCH  34  35
ENDBRANCH  10  29
TORSDOF 9
ENDMDL
MODEL 9
REMARK VINA RESULT:    -6.767      1.820      2.253
REMARK INTER + INTRA:          -9.897
REMARK INTER:                  -9.318
REMARK INTRA:                  -0.579
REMARK UNBOUND:                -0.757
REMARK SMILES O=c1c(-c2ccc(O)cc2)coc2c([C@@H]3O[C@H](CO)[C@@H](O)[C@H](O)[C@H]3O)c(O)ccc12
REMARK SMILES IDX 12 1 1 2 14 3 13 4 26 5 30 6 28 7 29 8 2 9 3 10 11 11 15 12
REMARK SMILES IDX 16 13 17 14 24 15 20 16 22 17 18 18 19 19 25 21 21 23 23 25
REMARK SMILES IDX 27 27 4 29 5 30 10 31 6 32 9 33 7 34 8 35
REMARK H PARENT 19 20 25 22 21 24 23 26 27 28 8 36
REMARK INDEX MAP 6 1 8 2 15 3 17 4 18 5 19 6 20 7 21 8 22 9 23 10 24 11 12 12
REMARK INDEX MAP 1 13 14 14 10 15 13 16 11 17 16 18 5 19 43 20 2 21 38 22 4 23
REMARK INDEX MAP 40 24 3 25 39 26 7 27 45 28 25 29 26 30 27 31 28 32 29 33
REMARK INDEX MAP 30 34 9 35 50 36
ROOT
ATOM      1  O   UNL     1      29.047 -11.263  -7.562  1.00  0.00    -0.463 OA
ATOM      2  O   UNL     1      28.512 -10.113 -11.440  1.00  0.00    -0.288 OA
ATOM      3  C   UNL     1      27.027 -10.227  -6.911  1.00  0.00     0.069 A 
ATOM      4  C   UNL     1      27.935 -10.545  -7.921  1.00  0.00     0.147 A 
ATOM      5  C   UNL     1      25.878  -9.499  -7.216  1.00  0.00     0.125 A 
ATOM      6  C   UNL     1      27.695 -10.135  -9.231  1.00  0.00     0.066 A 
ATOM      7  C   UNL     1      25.637  -9.088  -8.527  1.00  0.00     0.047 A 
ATOM      8  C   UNL     1      26.544  -9.404  -9.539  1.00  0.00     0.020 A 
ATOM      9  C   UNL     1      28.671 -10.479 -10.283  1.00  0.00     0.200 A 
ATOM     10  C   UNL     1      29.853 -11.276  -9.853  1.00  0.00     0.065 A 
ATOM     11  C   UNL     1      29.938 -11.596  -8.553  1.00  0.00     0.208 A 
ENDROOT
BRANCH   3  12
ATOM     12  C   UNL     1      27.281 -10.669  -5.483  1.00  0.00     0.188 C 
ATOM     13  O   UNL     1      26.020 -10.703  -4.807  1.00  0.00    -0.362 OA
ATOM     14  C   UNL     1      26.120 -11.197  -3.471  1.00  0.00     0.176 C 
ATOM     15  C   UNL     1      28.263  -9.736  -4.759  1.00  0.00     0.179 C 
ATOM     16  C   UNL     1      27.003 -10.269  -2.635  1.00  0.00     0.177 C 
ATOM     17  C   UNL     1      28.381 -10.104  -3.278  1.00  0.00     0.177 C 
BRANCH  14  18
ATOM     18  C   UNL     1      24.705 -11.288  -2.909  1.00  0.00     0.191 C 
BRANCH  18  19
ATOM     19  O   UNL     1      24.485 -10.177  -2.060  1.00  0.00    -0.394 OA
ATOM     20  H   UNL     1      25.234 -10.126  -1.442  1.00  0.00     0.210 HD
ENDBRANCH  18  19
ENDBRANCH  14  18
BRANCH  15  21
ATOM     21  O   UNL     1      29.547  -9.859  -5.371  1.00  0.00    -0.387 OA
ATOM     22  H   UNL     1      29.479 -10.526  -6.075  1.00  0.00     0.211 HD
ENDBRANCH  15  21
BRANCH  16  23
ATOM     23  O   UNL     1      27.156 -10.816  -1.328  1.00  0.00    -0.388 OA
ATOM     24  H   UNL     1      26.944 -11.764  -1.372  1.00  0.00     0.211 HD
ENDBRANCH  16  23
BRANCH  17  25
ATOM     25  O   UNL     1      29.071  -9.065  -2.582  1.00  0.00    -0.387 OA
ATOM     26  H   UNL     1      28.730  -9.051  -1.671  1.00  0.00     0.211 HD
ENDBRANCH  17  25
ENDBRANCH   3  12
BRANCH   5  27
ATOM     27  O   UNL     1      24.978  -9.178  -6.245  1.00  0.00    -0.507 OA
ATOM     28  H   UNL     1      24.296  -8.597  -6.622  1.00  0.00     0.293 HD
ENDBRANCH   5  27
BRANCH  10  29
ATOM     29  C   UNL     1      30.882 -11.719 -10.807  1.00  0.00    -0.011 A 
ATOM     30  C   UNL     1      31.889 -10.841 -11.212  1.00  0.00     0.013 A 
ATOM     31  C   UNL     1      30.855 -13.022 -11.311  1.00  0.00     0.013 A 
ATOM     32  C   UNL     1      32.864 -11.262 -12.115  1.00  0.00     0.047 A 
ATOM     33  C   UNL     1      31.830 -13.443 -12.215  1.00  0.00     0.047 A 
ATOM     34  C   UNL     1      32.835 -12.564 -12.617  1.00  0.00     0.115 A 
BRANCH  34  35
ATOM     35  O   UNL     1      33.786 -12.974 -13.500  1.00  0.00    -0.508 OA
ATOM     36  H   UNL     1      33.416 -13.680 -14.056  1.00  0.00     0.293 HD
ENDBRANCH  34  35
ENDBRANCH  10  29
TORSDOF 9
ENDMDL
MODEL 10
REMARK VINA RESULT:    -6.613      4.262      5.985
REMARK INTER + INTRA:          -9.689
REMARK INTER:                  -8.550
REMARK INTRA:                  -1.140
REMARK UNBOUND:                -0.757
REMARK SMILES O=c1c(-c2ccc(O)cc2)coc2c([C@@H]3O[C@H](CO)[C@@H](O)[C@H](O)[C@H]3O)c(O)ccc12
REMARK SMILES IDX 12 1 1 2 14 3 13 4 26 5 30 6 28 7 29 8 2 9 3 10 11 11 15 12
REMARK SMILES IDX 16 13 17 14 24 15 20 16 22 17 18 18 19 19 25 21 21 23 23 25
REMARK SMILES IDX 27 27 4 29 5 30 10 31 6 32 9 33 7 34 8 35
REMARK H PARENT 19 20 25 22 21 24 23 26 27 28 8 36
REMARK INDEX MAP 6 1 8 2 15 3 17 4 18 5 19 6 20 7 21 8 22 9 23 10 24 11 12 12
REMARK INDEX MAP 1 13 14 14 10 15 13 16 11 17 16 18 5 19 43 20 2 21 38 22 4 23
REMARK INDEX MAP 40 24 3 25 39 26 7 27 45 28 25 29 26 30 27 31 28 32 29 33
REMARK INDEX MAP 30 34 9 35 50 36
ROOT
ATOM      1  O   UNL     1      26.529  -8.274  -7.747  1.00  0.00    -0.463 OA
ATOM      2  O   UNL     1      29.391  -5.446  -8.423  1.00  0.00    -0.288 OA
ATOM      3  C   UNL     1      27.591  -8.962  -5.753  1.00  0.00     0.069 A 
ATOM      4  C   UNL     1      27.564  -8.115  -6.862  1.00  0.00     0.147 A 
ATOM      5  C   UNL     1      28.620  -8.848  -4.819  1.00  0.00     0.125 A 
ATOM      6  C   UNL     1      28.563  -7.160  -7.036  1.00  0.00     0.066 A 
ATOM      7  C   UNL     1      29.621  -7.892  -4.993  1.00  0.00     0.047 A 
ATOM      8  C   UNL     1      29.596  -7.044  -6.102  1.00  0.00     0.020 A 
ATOM      9  C   UNL     1      28.517  -6.278  -8.218  1.00  0.00     0.200 A 
ATOM     10  C   UNL     1      27.366  -6.471  -9.142  1.00  0.00     0.065 A 
ATOM     11  C   UNL     1      26.484  -7.434  -8.833  1.00  0.00     0.208 A 
ENDROOT
BRANCH   3  12
ATOM     12  C   UNL     1      26.508 -10.005  -5.557  1.00  0.00     0.188 C 
ATOM     13  O   UNL     1      26.115  -9.970  -4.181  1.00  0.00    -0.362 OA
ATOM     14  C   UNL     1      25.029 -10.850  -3.893  1.00  0.00     0.176 C 
ATOM     15  C   UNL     1      26.986 -11.411  -5.952  1.00  0.00     0.179 C 
ATOM     16  C   UNL     1      25.444 -12.299  -4.158  1.00  0.00     0.177 C 
ATOM     17  C   UNL     1      25.937 -12.467  -5.596  1.00  0.00     0.177 C 
BRANCH  14  18
ATOM     18  C   UNL     1      24.638 -10.634  -2.434  1.00  0.00     0.191 C 
BRANCH  18  19
ATOM     19  O   UNL     1      25.024 -11.775  -1.690  1.00  0.00    -0.394 OA
ATOM     20  H   UNL     1      24.899 -12.553  -2.259  1.00  0.00     0.210 HD
ENDBRANCH  18  19
ENDBRANCH  14  18
BRANCH  15  21
ATOM     21  O   UNL     1      27.211 -11.437  -7.362  1.00  0.00    -0.387 OA
ATOM     22  H   UNL     1      28.171 -11.472  -7.511  1.00  0.00     0.211 HD
ENDBRANCH  15  21
BRANCH  16  23
ATOM     23  O   UNL     1      24.327 -13.156  -3.941  1.00  0.00    -0.388 OA
ATOM     24  H   UNL     1      24.511 -14.007  -4.376  1.00  0.00     0.211 HD
ENDBRANCH  16  23
BRANCH  17  25
ATOM     25  O   UNL     1      26.513 -13.769  -5.715  1.00  0.00    -0.387 OA
ATOM     26  H   UNL     1      26.083 -14.337  -5.053  1.00  0.00     0.211 HD
ENDBRANCH  17  25
ENDBRANCH   3  12
BRANCH   5  27
ATOM     27  O   UNL     1      28.666  -9.664  -3.729  1.00  0.00    -0.507 OA
ATOM     28  H   UNL     1      28.821 -10.578  -4.021  1.00  0.00     0.293 HD
ENDBRANCH   5  27
BRANCH  10  29
ATOM     29  C   UNL     1      27.177  -5.633 -10.337  1.00  0.00    -0.011 A 
ATOM     30  C   UNL     1      27.753  -6.006 -11.553  1.00  0.00     0.013 A 
ATOM     31  C   UNL     1      26.422  -4.461 -10.259  1.00  0.00     0.013 A 
ATOM     32  C   UNL     1      27.574  -5.212 -12.686  1.00  0.00     0.047 A 
ATOM     33  C   UNL     1      26.242  -3.666 -11.391  1.00  0.00     0.047 A 
ATOM     34  C   UNL     1      26.818  -4.041 -12.605  1.00  0.00     0.115 A 
BRANCH  34  35
ATOM     35  O   UNL     1      26.644  -3.266 -13.710  1.00  0.00    -0.508 OA
ATOM     36  H   UNL     1      27.323  -3.498 -14.367  1.00  0.00     0.293 HD
ENDBRANCH  34  35
ENDBRANCH  10  29
TORSDOF 9
ENDMDL
MODEL 11
REMARK VINA RESULT:    -6.565      3.171      8.116
REMARK INTER + INTRA:          -9.625
REMARK INTER:                  -8.705
REMARK INTRA:                  -0.919
REMARK UNBOUND:                -0.757
REMARK SMILES O=c1c(-c2ccc(O)cc2)coc2c([C@@H]3O[C@H](CO)[C@@H](O)[C@H](O)[C@H]3O)c(O)ccc12
REMARK SMILES IDX 12 1 1 2 14 3 13 4 26 5 30 6 28 7 29 8 2 9 3 10 11 11 15 12
REMARK SMILES IDX 16 13 17 14 24 15 20 16 22 17 18 18 19 19 25 21 21 23 23 25
REMARK SMILES IDX 27 27 4 29 5 30 10 31 6 32 9 33 7 34 8 35
REMARK H PARENT 19 20 25 22 21 24 23 26 27 28 8 36
REMARK INDEX MAP 6 1 8 2 15 3 17 4 18 5 19 6 20 7 21 8 22 9 23 10 24 11 12 12
REMARK INDEX MAP 1 13 14 14 10 15 13 16 11 17 16 18 5 19 43 20 2 21 38 22 4 23
REMARK INDEX MAP 40 24 3 25 39 26 7 27 45 28 25 29 26 30 27 31 28 32 29 33
REMARK INDEX MAP 30 34 9 35 50 36
ROOT
ATOM      1  O   UNL     1      25.484  -9.348  -8.670  1.00  0.00    -0.463 OA
ATOM      2  O   UNL     1      28.523 -11.259  -6.729  1.00  0.00    -0.288 OA
ATOM      3  C   UNL     1      26.729  -9.272 -10.675  1.00  0.00     0.069 A 
ATOM      4  C   UNL     1      26.643  -9.653  -9.335  1.00  0.00     0.147 A 
ATOM      5  C   UNL     1      27.884  -9.555 -11.404  1.00  0.00     0.125 A 
ATOM      6  C   UNL     1      27.709 -10.314  -8.727  1.00  0.00     0.066 A 
ATOM      7  C   UNL     1      28.951 -10.216 -10.795  1.00  0.00     0.047 A 
ATOM      8  C   UNL     1      28.868 -10.597  -9.455  1.00  0.00     0.020 A 
ATOM      9  C   UNL     1      27.598 -10.704  -7.309  1.00  0.00     0.200 A 
ATOM     10  C   UNL     1      26.315 -10.372  -6.630  1.00  0.00     0.065 A 
ATOM     11  C   UNL     1      25.383  -9.735  -7.355  1.00  0.00     0.208 A 
ENDROOT
BRANCH   3  12
ATOM     12  C   UNL     1      25.574  -8.552 -11.343  1.00  0.00     0.188 C 
ATOM     13  O   UNL     1      25.508  -9.004 -12.701  1.00  0.00    -0.362 OA
ATOM     14  C   UNL     1      24.395  -8.461 -13.411  1.00  0.00     0.176 C 
ATOM     15  C   UNL     1      25.737  -7.026 -11.284  1.00  0.00     0.179 C 
ATOM     16  C   UNL     1      24.519  -6.939 -13.496  1.00  0.00     0.177 C 
ATOM     17  C   UNL     1      24.648  -6.325 -12.102  1.00  0.00     0.177 C 
BRANCH  14  18
ATOM     18  C   UNL     1      24.376  -9.105 -14.794  1.00  0.00     0.191 C 
BRANCH  18  19
ATOM     19  O   UNL     1      25.698  -9.481 -15.133  1.00  0.00    -0.394 OA
ATOM     20  H   UNL     1      26.058  -8.793 -15.718  1.00  0.00     0.210 HD
ENDBRANCH  18  19
ENDBRANCH  14  18
BRANCH  15  21
ATOM     21  O   UNL     1      25.635  -6.608  -9.922  1.00  0.00    -0.387 OA
ATOM     22  H   UNL     1      24.863  -6.024  -9.846  1.00  0.00     0.211 HD
ENDBRANCH  15  21
BRANCH  16  23
ATOM     23  O   UNL     1      23.364  -6.407 -14.139  1.00  0.00    -0.388 OA
ATOM     24  H   UNL     1      22.812  -7.153 -14.430  1.00  0.00     0.211 HD
ENDBRANCH  16  23
BRANCH  17  25
ATOM     25  O   UNL     1      24.983  -4.946 -12.256  1.00  0.00    -0.387 OA
ATOM     26  H   UNL     1      25.541  -4.870 -13.050  1.00  0.00     0.211 HD
ENDBRANCH  17  25
ENDBRANCH   3  12
BRANCH   5  27
ATOM     27  O   UNL     1      27.989  -9.192 -12.712  1.00  0.00    -0.507 OA
ATOM     28  H   UNL     1      28.300  -9.953 -13.230  1.00  0.00     0.293 HD
ENDBRANCH   5  27
BRANCH  10  29
ATOM     29  C   UNL     1      26.058 -10.739  -5.228  1.00  0.00    -0.011 A 
ATOM     30  C   UNL     1      26.695 -10.050  -4.194  1.00  0.00     0.013 A 
ATOM     31  C   UNL     1      25.174 -11.779  -4.928  1.00  0.00     0.013 A 
ATOM     32  C   UNL     1      26.450 -10.399  -2.866  1.00  0.00     0.047 A 
ATOM     33  C   UNL     1      24.930 -12.127  -3.599  1.00  0.00     0.047 A 
ATOM     34  C   UNL     1      25.567 -11.437  -2.568  1.00  0.00     0.115 A 
BRANCH  34  35
ATOM     35  O   UNL     1      25.329 -11.778  -1.272  1.00  0.00    -0.508 OA
ATOM     36  H   UNL     1      24.607 -11.224  -0.929  1.00  0.00     0.293 HD
ENDBRANCH  34  35
ENDBRANCH  10  29
TORSDOF 9
ENDMDL
MODEL 12
REMARK VINA RESULT:    -6.497      2.104      3.114
REMARK INTER + INTRA:          -9.533
REMARK INTER:                  -9.432
REMARK INTRA:                  -0.101
REMARK UNBOUND:                -0.757
REMARK SMILES O=c1c(-c2ccc(O)cc2)coc2c([C@@H]3O[C@H](CO)[C@@H](O)[C@H](O)[C@H]3O)c(O)ccc12
REMARK SMILES IDX 12 1 1 2 14 3 13 4 26 5 30 6 28 7 29 8 2 9 3 10 11 11 15 12
REMARK SMILES IDX 16 13 17 14 24 15 20 16 22 17 18 18 19 19 25 21 21 23 23 25
REMARK SMILES IDX 27 27 4 29 5 30 10 31 6 32 9 33 7 34 8 35
REMARK H PARENT 19 20 25 22 21 24 23 26 27 28 8 36
REMARK INDEX MAP 6 1 8 2 15 3 17 4 18 5 19 6 20 7 21 8 22 9 23 10 24 11 12 12
REMARK INDEX MAP 1 13 14 14 10 15 13 16 11 17 16 18 5 19 43 20 2 21 38 22 4 23
REMARK INDEX MAP 40 24 3 25 39 26 7 27 45 28 25 29 26 30 27 31 28 32 29 33
REMARK INDEX MAP 30 34 9 35 50 36
ROOT
ATOM      1  O   UNL     1      28.845 -10.659  -6.769  1.00  0.00    -0.463 OA
ATOM      2  O   UNL     1      31.894  -8.129  -7.747  1.00  0.00    -0.288 OA
ATOM      3  C   UNL     1      27.565  -8.878  -5.893  1.00  0.00     0.069 A 
ATOM      4  C   UNL     1      28.739  -9.317  -6.508  1.00  0.00     0.147 A 
ATOM      5  C   UNL     1      27.400  -7.525  -5.602  1.00  0.00     0.125 A 
ATOM      6  C   UNL     1      29.743  -8.406  -6.830  1.00  0.00     0.066 A 
ATOM      7  C   UNL     1      28.405  -6.611  -5.924  1.00  0.00     0.047 A 
ATOM      8  C   UNL     1      29.580  -7.049  -6.538  1.00  0.00     0.020 A 
ATOM      9  C   UNL     1      30.976  -8.892  -7.476  1.00  0.00     0.200 A 
ATOM     10  C   UNL     1      31.042 -10.353  -7.759  1.00  0.00     0.065 A 
ATOM     11  C   UNL     1      29.990 -11.098  -7.391  1.00  0.00     0.208 A 
ENDROOT
BRANCH   3  12
ATOM     12  C   UNL     1      26.469  -9.864  -5.540  1.00  0.00     0.188 C 
ATOM     13  O   UNL     1      26.631 -10.218  -4.162  1.00  0.00    -0.362 OA
ATOM     14  C   UNL     1      25.595 -11.077  -3.686  1.00  0.00     0.176 C 
ATOM     15  C   UNL     1      26.510 -11.113  -6.433  1.00  0.00     0.179 C 
ATOM     16  C   UNL     1      25.619 -12.402  -4.451  1.00  0.00     0.177 C 
ATOM     17  C   UNL     1      25.502 -12.162  -5.956  1.00  0.00     0.177 C 
BRANCH  14  18
ATOM     18  C   UNL     1      25.821 -11.283  -2.192  1.00  0.00     0.191 C 
BRANCH  18  19
ATOM     19  O   UNL     1      24.593 -11.666  -1.599  1.00  0.00    -0.394 OA
ATOM     20  H   UNL     1      24.585 -11.319  -0.691  1.00  0.00     0.210 HD
ENDBRANCH  18  19
ENDBRANCH  14  18
BRANCH  15  21
ATOM     21  O   UNL     1      26.184 -10.730  -7.769  1.00  0.00    -0.387 OA
ATOM     22  H   UNL     1      25.216 -10.702  -7.845  1.00  0.00     0.211 HD
ENDBRANCH  15  21
BRANCH  16  23
ATOM     23  O   UNL     1      24.532 -13.215  -4.018  1.00  0.00    -0.388 OA
ATOM     24  H   UNL     1      23.715 -12.696  -4.106  1.00  0.00     0.211 HD
ENDBRANCH  16  23
BRANCH  17  25
ATOM     25  O   UNL     1      25.754 -13.401  -6.621  1.00  0.00    -0.387 OA
ATOM     26  H   UNL     1      26.571 -13.770  -6.244  1.00  0.00     0.211 HD
ENDBRANCH  17  25
ENDBRANCH   3  12
BRANCH   5  27
ATOM     27  O   UNL     1      26.263  -7.074  -5.003  1.00  0.00    -0.507 OA
ATOM     28  H   UNL     1      26.496  -6.398  -4.344  1.00  0.00     0.293 HD
ENDBRANCH   5  27
BRANCH  10  29
ATOM     29  C   UNL     1      32.198 -10.964  -8.435  1.00  0.00    -0.011 A 
ATOM     30  C   UNL     1      32.180 -11.158  -9.818  1.00  0.00     0.013 A 
ATOM     31  C   UNL     1      33.318 -11.351  -7.695  1.00  0.00     0.013 A 
ATOM     32  C   UNL     1      33.276 -11.737 -10.458  1.00  0.00     0.047 A 
ATOM     33  C   UNL     1      34.413 -11.930  -8.336  1.00  0.00     0.047 A 
ATOM     34  C   UNL     1      34.393 -12.123  -9.717  1.00  0.00     0.115 A 
BRANCH  34  35
ATOM     35  O   UNL     1      35.461 -12.689 -10.342  1.00  0.00    -0.508 OA
ATOM     36  H   UNL     1      35.749 -13.465  -9.831  1.00  0.00     0.293 HD
ENDBRANCH  34  35
ENDBRANCH  10  29
TORSDOF 9
ENDMDL
MODEL 13
REMARK VINA RESULT:    -6.467      2.342      8.460
REMARK INTER + INTRA:          -9.493
REMARK INTER:                  -8.338
REMARK INTRA:                  -1.155
REMARK UNBOUND:                -0.757
REMARK SMILES O=c1c(-c2ccc(O)cc2)coc2c([C@@H]3O[C@H](CO)[C@@H](O)[C@H](O)[C@H]3O)c(O)ccc12
REMARK SMILES IDX 12 1 1 2 14 3 13 4 26 5 30 6 28 7 29 8 2 9 3 10 11 11 15 12
REMARK SMILES IDX 16 13 17 14 24 15 20 16 22 17 18 18 19 19 25 21 21 23 23 25
REMARK SMILES IDX 27 27 4 29 5 30 10 31 6 32 9 33 7 34 8 35
REMARK H PARENT 19 20 25 22 21 24 23 26 27 28 8 36
REMARK INDEX MAP 6 1 8 2 15 3 17 4 18 5 19 6 20 7 21 8 22 9 23 10 24 11 12 12
REMARK INDEX MAP 1 13 14 14 10 15 13 16 11 17 16 18 5 19 43 20 2 21 38 22 4 23
REMARK INDEX MAP 40 24 3 25 39 26 7 27 45 28 25 29 26 30 27 31 28 32 29 33
REMARK INDEX MAP 30 34 9 35 50 36
ROOT
ATOM      1  O   UNL     1      28.537 -11.065  -7.868  1.00  0.00    -0.463 OA
ATOM      2  O   UNL     1      27.795  -7.668  -5.731  1.00  0.00    -0.288 OA
ATOM      3  C   UNL     1      30.015  -9.913  -9.305  1.00  0.00     0.069 A 
ATOM      4  C   UNL     1      29.153  -9.888  -8.207  1.00  0.00     0.147 A 
ATOM      5  C   UNL     1      30.670  -8.747  -9.698  1.00  0.00     0.125 A 
ATOM      6  C   UNL     1      28.946  -8.701  -7.508  1.00  0.00     0.066 A 
ATOM      7  C   UNL     1      30.463  -7.557  -8.998  1.00  0.00     0.047 A 
ATOM      8  C   UNL     1      29.601  -7.530  -7.901  1.00  0.00     0.020 A 
ATOM      9  C   UNL     1      28.027  -8.696  -6.354  1.00  0.00     0.200 A 
ATOM     10  C   UNL     1      27.395  -9.999  -6.007  1.00  0.00     0.065 A 
ATOM     11  C   UNL     1      27.699 -11.054  -6.779  1.00  0.00     0.208 A 
ENDROOT
BRANCH   3  12
ATOM     12  C   UNL     1      30.245 -11.200 -10.071  1.00  0.00     0.188 C 
ATOM     13  O   UNL     1      31.654 -11.330 -10.291  1.00  0.00    -0.362 OA
ATOM     14  C   UNL     1      32.003 -12.559 -10.928  1.00  0.00     0.176 C 
ATOM     15  C   UNL     1      29.481 -11.220 -11.404  1.00  0.00     0.179 C 
ATOM     16  C   UNL     1      31.369 -12.628 -12.319  1.00  0.00     0.177 C 
ATOM     17  C   UNL     1      29.852 -12.452 -12.232  1.00  0.00     0.177 C 
BRANCH  14  18
ATOM     18  C   UNL     1      33.526 -12.621 -10.999  1.00  0.00     0.191 C 
BRANCH  18  19
ATOM     19  O   UNL     1      33.924 -13.979 -10.955  1.00  0.00    -0.394 OA
ATOM     20  H   UNL     1      33.237 -14.501 -11.402  1.00  0.00     0.210 HD
ENDBRANCH  18  19
ENDBRANCH  14  18
BRANCH  15  21
ATOM     21  O   UNL     1      28.080 -11.251 -11.127  1.00  0.00    -0.387 OA
ATOM     22  H   UNL     1      27.849 -12.156 -10.858  1.00  0.00     0.211 HD
ENDBRANCH  15  21
BRANCH  16  23
ATOM     23  O   UNL     1      31.663 -13.891 -12.909  1.00  0.00    -0.388 OA
ATOM     24  H   UNL     1      32.580 -13.866 -13.232  1.00  0.00     0.211 HD
ENDBRANCH  16  23
BRANCH  17  25
ATOM     25  O   UNL     1      29.349 -12.302 -13.561  1.00  0.00    -0.387 OA
ATOM     26  H   UNL     1      28.576 -12.886 -13.645  1.00  0.00     0.211 HD
ENDBRANCH  17  25
ENDBRANCH   3  12
BRANCH   5  27
ATOM     27  O   UNL     1      31.516  -8.748 -10.765  1.00  0.00    -0.507 OA
ATOM     28  H   UNL     1      31.738  -9.666 -10.995  1.00  0.00     0.293 HD
ENDBRANCH   5  27
BRANCH  10  29
ATOM     29  C   UNL     1      26.489 -10.144  -4.857  1.00  0.00    -0.011 A 
ATOM     30  C   UNL     1      26.989 -10.548  -3.617  1.00  0.00     0.013 A 
ATOM     31  C   UNL     1      25.126  -9.876  -5.000  1.00  0.00     0.013 A 
ATOM     32  C   UNL     1      26.130 -10.685  -2.527  1.00  0.00     0.047 A 
ATOM     33  C   UNL     1      24.267 -10.013  -3.910  1.00  0.00     0.047 A 
ATOM     34  C   UNL     1      24.768 -10.418  -2.673  1.00  0.00     0.115 A 
BRANCH  34  35
ATOM     35  O   UNL     1      23.930 -10.552  -1.609  1.00  0.00    -0.508 OA
ATOM     36  H   UNL     1      24.446 -10.842  -0.837  1.00  0.00     0.293 HD
ENDBRANCH  34  35
ENDBRANCH  10  29
TORSDOF 9
ENDMDL
MODEL 14
REMARK VINA RESULT:    -6.429      2.040      3.065
REMARK INTER + INTRA:          -9.441
REMARK INTER:                  -9.196
REMARK INTRA:                  -0.245
REMARK UNBOUND:                -0.757
REMARK SMILES O=c1c(-c2ccc(O)cc2)coc2c([C@@H]3O[C@H](CO)[C@@H](O)[C@H](O)[C@H]3O)c(O)ccc12
REMARK SMILES IDX 12 1 1 2 14 3 13 4 26 5 30 6 28 7 29 8 2 9 3 10 11 11 15 12
REMARK SMILES IDX 16 13 17 14 24 15 20 16 22 17 18 18 19 19 25 21 21 23 23 25
REMARK SMILES IDX 27 27 4 29 5 30 10 31 6 32 9 33 7 34 8 35
REMARK H PARENT 19 20 25 22 21 24 23 26 27 28 8 36
REMARK INDEX MAP 6 1 8 2 15 3 17 4 18 5 19 6 20 7 21 8 22 9 23 10 24 11 12 12
REMARK INDEX MAP 1 13 14 14 10 15 13 16 11 17 16 18 5 19 43 20 2 21 38 22 4 23
REMARK INDEX MAP 40 24 3 25 39 26 7 27 45 28 25 29 26 30 27 31 28 32 29 33
REMARK INDEX MAP 30 34 9 35 50 36
ROOT
ATOM      1  O   UNL     1      27.624 -10.408  -7.008  1.00  0.00    -0.463 OA
ATOM      2  O   UNL     1      29.606  -8.493 -10.017  1.00  0.00    -0.288 OA
ATOM      3  C   UNL     1      26.508  -8.419  -6.393  1.00  0.00     0.069 A 
ATOM      4  C   UNL     1      27.410  -9.073  -7.235  1.00  0.00     0.147 A 
ATOM      5  C   UNL     1      26.249  -7.062  -6.576  1.00  0.00     0.125 A 
ATOM      6  C   UNL     1      28.049  -8.370  -8.254  1.00  0.00     0.066 A 
ATOM      7  C   UNL     1      26.890  -6.357  -7.596  1.00  0.00     0.047 A 
ATOM      8  C   UNL     1      27.792  -7.009  -8.438  1.00  0.00     0.020 A 
ATOM      9  C   UNL     1      29.001  -9.080  -9.129  1.00  0.00     0.200 A 
ATOM     10  C   UNL     1      29.190 -10.533  -8.861  1.00  0.00     0.065 A 
ATOM     11  C   UNL     1      28.497 -11.064  -7.842  1.00  0.00     0.208 A 
ENDROOT
BRANCH   3  12
ATOM     12  C   UNL     1      25.809  -9.177  -5.282  1.00  0.00     0.188 C 
ATOM     13  O   UNL     1      26.792  -9.508  -4.296  1.00  0.00    -0.362 OA
ATOM     14  C   UNL     1      26.232 -10.148  -3.149  1.00  0.00     0.176 C 
ATOM     15  C   UNL     1      25.109 -10.442  -5.801  1.00  0.00     0.179 C 
ATOM     16  C   UNL     1      25.596 -11.480  -3.550  1.00  0.00     0.177 C 
ATOM     17  C   UNL     1      24.548 -11.274  -4.645  1.00  0.00     0.177 C 
BRANCH  14  18
ATOM     18  C   UNL     1      27.358 -10.341  -2.137  1.00  0.00     0.191 C 
BRANCH  18  19
ATOM     19  O   UNL     1      28.534  -9.744  -2.652  1.00  0.00    -0.394 OA
ATOM     20  H   UNL     1      28.273  -9.178  -3.398  1.00  0.00     0.210 HD
ENDBRANCH  18  19
ENDBRANCH  14  18
BRANCH  15  21
ATOM     21  O   UNL     1      24.033 -10.051  -6.656  1.00  0.00    -0.387 OA
ATOM     22  H   UNL     1      23.715  -9.183  -6.357  1.00  0.00     0.211 HD
ENDBRANCH  15  21
BRANCH  16  23
ATOM     23  O   UNL     1      24.975 -12.067  -2.410  1.00  0.00    -0.388 OA
ATOM     24  H   UNL     1      24.742 -11.353  -1.792  1.00  0.00     0.211 HD
ENDBRANCH  16  23
BRANCH  17  25
ATOM     25  O   UNL     1      24.157 -12.559  -5.129  1.00  0.00    -0.387 OA
ATOM     26  H   UNL     1      23.460 -12.892  -4.537  1.00  0.00     0.211 HD
ENDBRANCH  17  25
ENDBRANCH   3  12
BRANCH   5  27
ATOM     27  O   UNL     1      25.374  -6.404  -5.766  1.00  0.00    -0.507 OA
ATOM     28  H   UNL     1      25.051  -5.609  -6.223  1.00  0.00     0.293 HD
ENDBRANCH   5  27
BRANCH  10  29
ATOM     29  C   UNL     1      30.080 -11.368  -9.683  1.00  0.00    -0.011 A 
ATOM     30  C   UNL     1      29.767 -11.621 -11.020  1.00  0.00     0.013 A 
ATOM     31  C   UNL     1      31.241 -11.911  -9.128  1.00  0.00     0.013 A 
ATOM     32  C   UNL     1      30.611 -12.412 -11.799  1.00  0.00     0.047 A 
ATOM     33  C   UNL     1      32.085 -12.703  -9.907  1.00  0.00     0.047 A 
ATOM     34  C   UNL     1      31.770 -12.954 -11.243  1.00  0.00     0.115 A 
BRANCH  34  35
ATOM     35  O   UNL     1      32.592 -13.727 -12.003  1.00  0.00    -0.508 OA
ATOM     36  H   UNL     1      33.305 -13.171 -12.361  1.00  0.00     0.293 HD
ENDBRANCH  34  35
ENDBRANCH  10  29
TORSDOF 9
ENDMDL
MODEL 15
REMARK VINA RESULT:    -6.224      2.429      4.032
REMARK INTER + INTRA:          -9.164
REMARK INTER:                  -8.029
REMARK INTRA:                  -1.136
REMARK UNBOUND:                -0.757
REMARK SMILES O=c1c(-c2ccc(O)cc2)coc2c([C@@H]3O[C@H](CO)[C@@H](O)[C@H](O)[C@H]3O)c(O)ccc12
REMARK SMILES IDX 12 1 1 2 14 3 13 4 26 5 30 6 28 7 29 8 2 9 3 10 11 11 15 12
REMARK SMILES IDX 16 13 17 14 24 15 20 16 22 17 18 18 19 19 25 21 21 23 23 25
REMARK SMILES IDX 27 27 4 29 5 30 10 31 6 32 9 33 7 34 8 35
REMARK H PARENT 19 20 25 22 21 24 23 26 27 28 8 36
REMARK INDEX MAP 6 1 8 2 15 3 17 4 18 5 19 6 20 7 21 8 22 9 23 10 24 11 12 12
REMARK INDEX MAP 1 13 14 14 10 15 13 16 11 17 16 18 5 19 43 20 2 21 38 22 4 23
REMARK INDEX MAP 40 24 3 25 39 26 7 27 45 28 25 29 26 30 27 31 28 32 29 33
REMARK INDEX MAP 30 34 9 35 50 36
ROOT
ATOM      1  O   UNL     1      27.811 -10.383  -8.618  1.00  0.00    -0.463 OA
ATOM      2  O   UNL     1      31.641  -9.909  -9.943  1.00  0.00    -0.288 OA
ATOM      3  C   UNL     1      28.315  -9.301  -6.580  1.00  0.00     0.069 A 
ATOM      4  C   UNL     1      28.739  -9.750  -7.832  1.00  0.00     0.147 A 
ATOM      5  C   UNL     1      29.215  -8.650  -5.736  1.00  0.00     0.125 A 
ATOM      6  C   UNL     1      30.058  -9.551  -8.236  1.00  0.00     0.066 A 
ATOM      7  C   UNL     1      30.536  -8.451  -6.141  1.00  0.00     0.047 A 
ATOM      8  C   UNL     1      30.961  -8.900  -7.392  1.00  0.00     0.020 A 
ATOM      9  C   UNL     1      30.484 -10.038  -9.562  1.00  0.00     0.200 A 
ATOM     10  C   UNL     1      29.441 -10.701 -10.390  1.00  0.00     0.065 A 
ATOM     11  C   UNL     1      28.214 -10.814  -9.858  1.00  0.00     0.208 A 
ENDROOT
BRANCH   3  12
ATOM     12  C   UNL     1      26.883  -9.514  -6.133  1.00  0.00     0.188 C 
ATOM     13  O   UNL     1      26.416  -8.284  -5.568  1.00  0.00    -0.362 OA
ATOM     14  C   UNL     1      25.040  -8.335  -5.191  1.00  0.00     0.176 C 
ATOM     15  C   UNL     1      26.763 -10.661  -5.117  1.00  0.00     0.179 C 
ATOM     16  C   UNL     1      24.834  -9.386  -4.099  1.00  0.00     0.177 C 
ATOM     17  C   UNL     1      25.341 -10.754  -4.558  1.00  0.00     0.177 C 
BRANCH  14  18
ATOM     18  C   UNL     1      24.643  -6.941  -4.716  1.00  0.00     0.191 C 
BRANCH  18  19
ATOM     19  O   UNL     1      23.229  -6.863  -4.682  1.00  0.00    -0.394 OA
ATOM     20  H   UNL     1      22.920  -6.740  -5.595  1.00  0.00     0.210 HD
ENDBRANCH  18  19
ENDBRANCH  14  18
BRANCH  15  21
ATOM     21  O   UNL     1      27.086 -11.888  -5.773  1.00  0.00    -0.387 OA
ATOM     22  H   UNL     1      26.364 -12.516  -5.603  1.00  0.00     0.211 HD
ENDBRANCH  15  21
BRANCH  16  23
ATOM     23  O   UNL     1      23.446  -9.479  -3.790  1.00  0.00    -0.388 OA
ATOM     24  H   UNL     1      22.947  -9.078  -4.523  1.00  0.00     0.211 HD
ENDBRANCH  16  23
BRANCH  17  25
ATOM     25  O   UNL     1      25.329 -11.630  -3.431  1.00  0.00    -0.387 OA
ATOM     26  H   UNL     1      24.904 -11.152  -2.697  1.00  0.00     0.211 HD
ENDBRANCH  17  25
ENDBRANCH   3  12
BRANCH   5  27
ATOM     27  O   UNL     1      28.823  -8.203  -4.511  1.00  0.00    -0.507 OA
ATOM     28  H   UNL     1      29.571  -7.757  -4.080  1.00  0.00     0.293 HD
ENDBRANCH   5  27
BRANCH  10  29
ATOM     29  C   UNL     1      29.722 -11.198 -11.747  1.00  0.00    -0.011 A 
ATOM     30  C   UNL     1      29.529 -10.367 -12.852  1.00  0.00     0.013 A 
ATOM     31  C   UNL     1      30.182 -12.503 -11.933  1.00  0.00     0.013 A 
ATOM     32  C   UNL     1      29.796 -10.838 -14.138  1.00  0.00     0.047 A 
ATOM     33  C   UNL     1      30.449 -12.974 -13.219  1.00  0.00     0.047 A 
ATOM     34  C   UNL     1      30.256 -12.142 -14.321  1.00  0.00     0.115 A 
BRANCH  34  35
ATOM     35  O   UNL     1      30.515 -12.602 -15.575  1.00  0.00    -0.508 OA
ATOM     36  H   UNL     1      30.281 -11.911 -16.219  1.00  0.00     0.293 HD
ENDBRANCH  34  35
ENDBRANCH  10  29
TORSDOF 9
ENDMDL
MODEL 16
REMARK VINA RESULT:    -6.222      1.535      8.652
REMARK INTER + INTRA:          -9.161
REMARK INTER:                  -8.146
REMARK INTRA:                  -1.015
REMARK UNBOUND:                -0.757
REMARK SMILES O=c1c(-c2ccc(O)cc2)coc2c([C@@H]3O[C@H](CO)[C@@H](O)[C@H](O)[C@H]3O)c(O)ccc12
REMARK SMILES IDX 12 1 1 2 14 3 13 4 26 5 30 6 28 7 29 8 2 9 3 10 11 11 15 12
REMARK SMILES IDX 16 13 17 14 24 15 20 16 22 17 18 18 19 19 25 21 21 23 23 25
REMARK SMILES IDX 27 27 4 29 5 30 10 31 6 32 9 33 7 34 8 35
REMARK H PARENT 19 20 25 22 21 24 23 26 27 28 8 36
REMARK INDEX MAP 6 1 8 2 15 3 17 4 18 5 19 6 20 7 21 8 22 9 23 10 24 11 12 12
REMARK INDEX MAP 1 13 14 14 10 15 13 16 11 17 16 18 5 19 43 20 2 21 38 22 4 23
REMARK INDEX MAP 40 24 3 25 39 26 7 27 45 28 25 29 26 30 27 31 28 32 29 33
REMARK INDEX MAP 30 34 9 35 50 36
ROOT
ATOM      1  O   UNL     1      29.859 -10.993  -7.455  1.00  0.00    -0.463 OA
ATOM      2  O   UNL     1      25.841 -10.355  -7.770  1.00  0.00    -0.288 OA
ATOM      3  C   UNL     1      30.189 -10.440  -9.727  1.00  0.00     0.069 A 
ATOM      4  C   UNL     1      29.316 -10.596  -8.649  1.00  0.00     0.147 A 
ATOM      5  C   UNL     1      29.694 -10.038 -10.967  1.00  0.00     0.125 A 
ATOM      6  C   UNL     1      27.953 -10.353  -8.813  1.00  0.00     0.066 A 
ATOM      7  C   UNL     1      28.330  -9.795 -11.131  1.00  0.00     0.047 A 
ATOM      8  C   UNL     1      27.455  -9.952 -10.055  1.00  0.00     0.020 A 
ATOM      9  C   UNL     1      27.048 -10.529  -7.661  1.00  0.00     0.200 A 
ATOM     10  C   UNL     1      27.682 -10.941  -6.379  1.00  0.00     0.065 A 
ATOM     11  C   UNL     1      29.010 -11.133  -6.384  1.00  0.00     0.208 A 
ENDROOT
BRANCH   3  12
ATOM     12  C   UNL     1      31.672 -10.703  -9.557  1.00  0.00     0.188 C 
ATOM     13  O   UNL     1      32.379  -9.675 -10.259  1.00  0.00    -0.362 OA
ATOM     14  C   UNL     1      33.794  -9.764 -10.095  1.00  0.00     0.176 C 
ATOM     15  C   UNL     1      32.073 -12.092 -10.076  1.00  0.00     0.179 C 
ATOM     16  C   UNL     1      34.308 -11.081 -10.680  1.00  0.00     0.177 C 
ATOM     17  C   UNL     1      33.592 -12.273 -10.044  1.00  0.00     0.177 C 
BRANCH  14  18
ATOM     18  C   UNL     1      34.414  -8.557 -10.792  1.00  0.00     0.191 C 
BRANCH  18  19
ATOM     19  O   UNL     1      34.821  -8.947 -12.091  1.00  0.00    -0.394 OA
ATOM     20  H   UNL     1      34.208  -9.637 -12.396  1.00  0.00     0.210 HD
ENDBRANCH  18  19
ENDBRANCH  14  18
BRANCH  15  21
ATOM     21  O   UNL     1      31.469 -13.082  -9.243  1.00  0.00    -0.387 OA
ATOM     22  H   UNL     1      31.934 -13.922  -9.392  1.00  0.00     0.211 HD
ENDBRANCH  15  21
BRANCH  16  23
ATOM     23  O   UNL     1      35.708 -11.190 -10.438  1.00  0.00    -0.388 OA
ATOM     24  H   UNL     1      36.015 -12.028 -10.823  1.00  0.00     0.211 HD
ENDBRANCH  16  23
BRANCH  17  25
ATOM     25  O   UNL     1      33.947 -13.444 -10.781  1.00  0.00    -0.387 OA
ATOM     26  H   UNL     1      33.130 -13.952 -10.929  1.00  0.00     0.211 HD
ENDBRANCH  17  25
ENDBRANCH   3  12
BRANCH   5  27
ATOM     27  O   UNL     1      30.528  -9.879 -12.032  1.00  0.00    -0.507 OA
ATOM     28  H   UNL     1      30.689 -10.745 -12.444  1.00  0.00     0.293 HD
ENDBRANCH   5  27
BRANCH  10  29
ATOM     29  C   UNL     1      26.901 -11.114  -5.144  1.00  0.00    -0.011 A 
ATOM     30  C   UNL     1      25.897 -12.082  -5.078  1.00  0.00     0.013 A 
ATOM     31  C   UNL     1      27.162 -10.310  -4.032  1.00  0.00     0.013 A 
ATOM     32  C   UNL     1      25.157 -12.246  -3.907  1.00  0.00     0.047 A 
ATOM     33  C   UNL     1      26.422 -10.474  -2.861  1.00  0.00     0.047 A 
ATOM     34  C   UNL     1      25.419 -11.441  -2.798  1.00  0.00     0.115 A 
BRANCH  34  35
ATOM     35  O   UNL     1      24.696 -11.600  -1.656  1.00  0.00    -0.508 OA
ATOM     36  H   UNL     1      24.100 -12.360  -1.765  1.00  0.00     0.293 HD
ENDBRANCH  34  35
ENDBRANCH  10  29
TORSDOF 9
ENDMDL
MODEL 17
REMARK VINA RESULT:    -6.170      4.246      8.696
REMARK INTER + INTRA:          -9.091
REMARK INTER:                  -7.949
REMARK INTRA:                  -1.142
REMARK UNBOUND:                -0.757
REMARK SMILES O=c1c(-c2ccc(O)cc2)coc2c([C@@H]3O[C@H](CO)[C@@H](O)[C@H](O)[C@H]3O)c(O)ccc12
REMARK SMILES IDX 12 1 1 2 14 3 13 4 26 5 30 6 28 7 29 8 2 9 3 10 11 11 15 12
REMARK SMILES IDX 16 13 17 14 24 15 20 16 22 17 18 18 19 19 25 21 21 23 23 25
REMARK SMILES IDX 27 27 4 29 5 30 10 31 6 32 9 33 7 34 8 35
REMARK H PARENT 19 20 25 22 21 24 23 26 27 28 8 36
REMARK INDEX MAP 6 1 8 2 15 3 17 4 18 5 19 6 20 7 21 8 22 9 23 10 24 11 12 12
REMARK INDEX MAP 1 13 14 14 10 15 13 16 11 17 16 18 5 19 43 20 2 21 38 22 4 23
REMARK INDEX MAP 40 24 3 25 39 26 7 27 45 28 25 29 26 30 27 31 28 32 29 33
REMARK INDEX MAP 30 34 9 35 50 36
ROOT
ATOM      1  O   UNL     1      25.923  -8.935  -8.611  1.00  0.00    -0.463 OA
ATOM      2  O   UNL     1      26.364  -6.727  -5.209  1.00  0.00    -0.288 OA
ATOM      3  C   UNL     1      26.501  -7.086  -9.962  1.00  0.00     0.069 A 
ATOM      4  C   UNL     1      26.297  -7.619  -8.687  1.00  0.00     0.147 A 
ATOM      5  C   UNL     1      26.882  -5.752 -10.102  1.00  0.00     0.125 A 
ATOM      6  C   UNL     1      26.473  -6.820  -7.559  1.00  0.00     0.066 A 
ATOM      7  C   UNL     1      27.058  -4.951  -8.973  1.00  0.00     0.047 A 
ATOM      8  C   UNL     1      26.854  -5.482  -7.698  1.00  0.00     0.020 A 
ATOM      9  C   UNL     1      26.249  -7.402  -6.223  1.00  0.00     0.200 A 
ATOM     10  C   UNL     1      25.863  -8.840  -6.185  1.00  0.00     0.065 A 
ATOM     11  C   UNL     1      25.737  -9.473  -7.361  1.00  0.00     0.208 A 
ENDROOT
BRANCH   3  12
ATOM     12  C   UNL     1      26.311  -7.948 -11.193  1.00  0.00     0.188 C 
ATOM     13  O   UNL     1      27.422  -7.714 -12.064  1.00  0.00    -0.362 OA
ATOM     14  C   UNL     1      27.402  -8.545 -13.225  1.00  0.00     0.176 C 
ATOM     15  C   UNL     1      24.985  -7.645 -11.908  1.00  0.00     0.179 C 
ATOM     16  C   UNL     1      26.159  -8.241 -14.064  1.00  0.00     0.177 C 
ATOM     17  C   UNL     1      24.887  -8.408 -13.232  1.00  0.00     0.177 C 
BRANCH  14  18
ATOM     18  C   UNL     1      28.687  -8.278 -14.002  1.00  0.00     0.191 C 
BRANCH  18  19
ATOM     19  O   UNL     1      29.068  -9.471 -14.664  1.00  0.00    -0.394 OA
ATOM     20  H   UNL     1      29.463 -10.062 -14.001  1.00  0.00     0.210 HD
ENDBRANCH  18  19
ENDBRANCH  14  18
BRANCH  15  21
ATOM     21  O   UNL     1      23.907  -8.046 -11.061  1.00  0.00    -0.387 OA
ATOM     22  H   UNL     1      23.273  -8.546 -11.601  1.00  0.00     0.211 HD
ENDBRANCH  15  21
BRANCH  16  23
ATOM     23  O   UNL     1      26.113  -9.131 -15.176  1.00  0.00    -0.388 OA
ATOM     24  H   UNL     1      25.363  -9.737 -15.046  1.00  0.00     0.211 HD
ENDBRANCH  16  23
BRANCH  17  25
ATOM     25  O   UNL     1      23.791  -7.900 -13.994  1.00  0.00    -0.387 OA
ATOM     26  H   UNL     1      22.974  -8.192 -13.555  1.00  0.00     0.211 HD
ENDBRANCH  17  25
ENDBRANCH   3  12
BRANCH   5  27
ATOM     27  O   UNL     1      27.086  -5.212 -11.335  1.00  0.00    -0.507 OA
ATOM     28  H   UNL     1      27.232  -4.255 -11.245  1.00  0.00     0.293 HD
ENDBRANCH   5  27
BRANCH  10  29
ATOM     29  C   UNL     1      25.647  -9.555  -4.917  1.00  0.00    -0.011 A 
ATOM     30  C   UNL     1      26.731 -10.098  -4.225  1.00  0.00     0.013 A 
ATOM     31  C   UNL     1      24.356  -9.693  -4.402  1.00  0.00     0.013 A 
ATOM     32  C   UNL     1      26.526 -10.776  -3.023  1.00  0.00     0.047 A 
ATOM     33  C   UNL     1      24.151 -10.371  -3.200  1.00  0.00     0.047 A 
ATOM     34  C   UNL     1      25.236 -10.913  -2.510  1.00  0.00     0.115 A 
BRANCH  34  35
ATOM     35  O   UNL     1      25.036 -11.575  -1.338  1.00  0.00    -0.508 OA
ATOM     36  H   UNL     1      25.900 -11.807  -0.957  1.00  0.00     0.293 HD
ENDBRANCH  34  35
ENDBRANCH  10  29
TORSDOF 9
ENDMDL
MODEL 18
REMARK VINA RESULT:    -6.165      5.085      8.566
REMARK INTER + INTRA:          -9.085
REMARK INTER:                  -7.943
REMARK INTRA:                  -1.141
REMARK UNBOUND:                -0.757
REMARK SMILES O=c1c(-c2ccc(O)cc2)coc2c([C@@H]3O[C@H](CO)[C@@H](O)[C@H](O)[C@H]3O)c(O)ccc12
REMARK SMILES IDX 12 1 1 2 14 3 13 4 26 5 30 6 28 7 29 8 2 9 3 10 11 11 15 12
REMARK SMILES IDX 16 13 17 14 24 15 20 16 22 17 18 18 19 19 25 21 21 23 23 25
REMARK SMILES IDX 27 27 4 29 5 30 10 31 6 32 9 33 7 34 8 35
REMARK H PARENT 19 20 25 22 21 24 23 26 27 28 8 36
REMARK INDEX MAP 6 1 8 2 15 3 17 4 18 5 19 6 20 7 21 8 22 9 23 10 24 11 12 12
REMARK INDEX MAP 1 13 14 14 10 15 13 16 11 17 16 18 5 19 43 20 2 21 38 22 4 23
REMARK INDEX MAP 40 24 3 25 39 26 7 27 45 28 25 29 26 30 27 31 28 32 29 33
REMARK INDEX MAP 30 34 9 35 50 36
ROOT
ATOM      1  O   UNL     1      29.256  -8.709  -4.631  1.00  0.00    -0.463 OA
ATOM      2  O   UNL     1      25.929  -8.971  -6.978  1.00  0.00    -0.288 OA
ATOM      3  C   UNL     1      29.806  -6.598  -5.537  1.00  0.00     0.069 A 
ATOM      4  C   UNL     1      28.940  -7.693  -5.496  1.00  0.00     0.147 A 
ATOM      5  C   UNL     1      29.537  -5.535  -6.398  1.00  0.00     0.125 A 
ATOM      6  C   UNL     1      27.812  -7.723  -6.313  1.00  0.00     0.066 A 
ATOM      7  C   UNL     1      28.407  -5.565  -7.217  1.00  0.00     0.047 A 
ATOM      8  C   UNL     1      27.541  -6.659  -7.177  1.00  0.00     0.020 A 
ATOM      9  C   UNL     1      26.914  -8.892  -6.256  1.00  0.00     0.200 A 
ATOM     10  C   UNL     1      27.283  -9.963  -5.290  1.00  0.00     0.065 A 
ATOM     11  C   UNL     1      28.401  -9.783  -4.571  1.00  0.00     0.208 A 
ENDROOT
BRANCH   3  12
ATOM     12  C   UNL     1      31.035  -6.558  -4.652  1.00  0.00     0.188 C 
ATOM     13  O   UNL     1      31.149  -5.232  -4.125  1.00  0.00    -0.362 OA
ATOM     14  C   UNL     1      32.225  -5.095  -3.198  1.00  0.00     0.176 C 
ATOM     15  C   UNL     1      32.308  -6.951  -5.418  1.00  0.00     0.179 C 
ATOM     16  C   UNL     1      33.558  -5.367  -3.897  1.00  0.00     0.177 C 
ATOM     17  C   UNL     1      33.555  -6.748  -4.553  1.00  0.00     0.177 C 
BRANCH  14  18
ATOM     18  C   UNL     1      32.164  -3.680  -2.631  1.00  0.00     0.191 C 
BRANCH  18  19
ATOM     19  O   UNL     1      32.611  -3.713  -1.287  1.00  0.00    -0.394 OA
ATOM     20  H   UNL     1      32.389  -4.587  -0.925  1.00  0.00     0.210 HD
ENDBRANCH  18  19
ENDBRANCH  14  18
BRANCH  15  21
ATOM     21  O   UNL     1      32.215  -8.328  -5.783  1.00  0.00    -0.387 OA
ATOM     22  H   UNL     1      32.566  -8.857  -5.047  1.00  0.00     0.211 HD
ENDBRANCH  15  21
BRANCH  16  23
ATOM     23  O   UNL     1      34.613  -5.303  -2.942  1.00  0.00    -0.388 OA
ATOM     24  H   UNL     1      35.348  -4.804  -3.339  1.00  0.00     0.211 HD
ENDBRANCH  16  23
BRANCH  17  25
ATOM     25  O   UNL     1      34.722  -6.852  -5.369  1.00  0.00    -0.387 OA
ATOM     26  H   UNL     1      34.562  -7.562  -6.014  1.00  0.00     0.211 HD
ENDBRANCH  17  25
ENDBRANCH   3  12
BRANCH   5  27
ATOM     27  O   UNL     1      30.367  -4.457  -6.454  1.00  0.00    -0.507 OA
ATOM     28  H   UNL     1      30.358  -4.001  -5.596  1.00  0.00     0.293 HD
ENDBRANCH   5  27
BRANCH  10  29
ATOM     29  C   UNL     1      26.454 -11.164  -5.104  1.00  0.00    -0.011 A 
ATOM     30  C   UNL     1      26.645 -12.282  -5.918  1.00  0.00     0.013 A 
ATOM     31  C   UNL     1      25.471 -11.190  -4.111  1.00  0.00     0.013 A 
ATOM     32  C   UNL     1      25.859 -13.421  -5.741  1.00  0.00     0.047 A 
ATOM     33  C   UNL     1      24.685 -12.329  -3.934  1.00  0.00     0.047 A 
ATOM     34  C   UNL     1      24.878 -13.444  -4.749  1.00  0.00     0.115 A 
BRANCH  34  35
ATOM     35  O   UNL     1      24.111 -14.554  -4.577  1.00  0.00    -0.508 OA
ATOM     36  H   UNL     1      23.759 -14.557  -3.670  1.00  0.00     0.293 HD
ENDBRANCH  34  35
ENDBRANCH  10  29
TORSDOF 9
ENDMDL
MODEL 19
REMARK VINA RESULT:    -6.077      2.135      7.829
REMARK INTER + INTRA:          -8.966
REMARK INTER:                  -8.816
REMARK INTRA:                  -0.150
REMARK UNBOUND:                -0.757
REMARK SMILES O=c1c(-c2ccc(O)cc2)coc2c([C@@H]3O[C@H](CO)[C@@H](O)[C@H](O)[C@H]3O)c(O)ccc12
REMARK SMILES IDX 12 1 1 2 14 3 13 4 26 5 30 6 28 7 29 8 2 9 3 10 11 11 15 12
REMARK SMILES IDX 16 13 17 14 24 15 20 16 22 17 18 18 19 19 25 21 21 23 23 25
REMARK SMILES IDX 27 27 4 29 5 30 10 31 6 32 9 33 7 34 8 35
REMARK H PARENT 19 20 25 22 21 24 23 26 27 28 8 36
REMARK INDEX MAP 6 1 8 2 15 3 17 4 18 5 19 6 20 7 21 8 22 9 23 10 24 11 12 12
REMARK INDEX MAP 1 13 14 14 10 15 13 16 11 17 16 18 5 19 43 20 2 21 38 22 4 23
REMARK INDEX MAP 40 24 3 25 39 26 7 27 45 28 25 29 26 30 27 31 28 32 29 33
REMARK INDEX MAP 30 34 9 35 50 36
ROOT
ATOM      1  O   UNL     1      29.142 -10.682  -7.712  1.00  0.00    -0.463 OA
ATOM      2  O   UNL     1      26.058  -8.295  -6.512  1.00  0.00    -0.288 OA
ATOM      3  C   UNL     1      29.542  -9.323  -9.602  1.00  0.00     0.069 A 
ATOM      4  C   UNL     1      28.802  -9.574  -8.445  1.00  0.00     0.147 A 
ATOM      5  C   UNL     1      29.241  -8.211 -10.388  1.00  0.00     0.125 A 
ATOM      6  C   UNL     1      27.766  -8.718  -8.078  1.00  0.00     0.066 A 
ATOM      7  C   UNL     1      28.203  -7.353 -10.021  1.00  0.00     0.047 A 
ATOM      8  C   UNL     1      27.462  -7.604  -8.865  1.00  0.00     0.020 A 
ATOM      9  C   UNL     1      26.994  -9.006  -6.854  1.00  0.00     0.200 A 
ATOM     10  C   UNL     1      27.409 -10.206  -6.078  1.00  0.00     0.065 A 
ATOM     11  C   UNL     1      28.431 -10.929  -6.563  1.00  0.00     0.208 A 
ENDROOT
BRANCH   3  12
ATOM     12  C   UNL     1      30.670 -10.250 -10.008  1.00  0.00     0.188 C 
ATOM     13  O   UNL     1      30.102 -11.314 -10.780  1.00  0.00    -0.362 OA
ATOM     14  C   UNL     1      31.086 -12.207 -11.299  1.00  0.00     0.176 C 
ATOM     15  C   UNL     1      31.426 -10.803  -8.790  1.00  0.00     0.179 C 
ATOM     16  C   UNL     1      31.830 -12.893 -10.152  1.00  0.00     0.177 C 
ATOM     17  C   UNL     1      32.452 -11.858  -9.213  1.00  0.00     0.177 C 
BRANCH  14  18
ATOM     18  C   UNL     1      30.365 -13.217 -12.187  1.00  0.00     0.191 C 
BRANCH  18  19
ATOM     19  O   UNL     1      29.001 -12.845 -12.276  1.00  0.00    -0.394 OA
ATOM     20  H   UNL     1      28.968 -11.904 -12.519  1.00  0.00     0.210 HD
ENDBRANCH  18  19
ENDBRANCH  14  18
BRANCH  15  21
ATOM     21  O   UNL     1      32.106  -9.725  -8.147  1.00  0.00    -0.387 OA
ATOM     22  H   UNL     1      32.211  -9.955  -7.209  1.00  0.00     0.211 HD
ENDBRANCH  15  21
BRANCH  16  23
ATOM     23  O   UNL     1      32.859 -13.721 -10.685  1.00  0.00    -0.388 OA
ATOM     24  H   UNL     1      32.468 -14.278 -11.380  1.00  0.00     0.211 HD
ENDBRANCH  16  23
BRANCH  17  25
ATOM     25  O   UNL     1      32.933 -12.544  -8.057  1.00  0.00    -0.387 OA
ATOM     26  H   UNL     1      33.900 -12.440  -8.040  1.00  0.00     0.211 HD
ENDBRANCH  17  25
ENDBRANCH   3  12
BRANCH   5  27
ATOM     27  O   UNL     1      29.950  -7.946 -11.520  1.00  0.00    -0.507 OA
ATOM     28  H   UNL     1      29.981  -6.985 -11.660  1.00  0.00     0.293 HD
ENDBRANCH   5  27
BRANCH  10  29
ATOM     29  C   UNL     1      26.751 -10.585  -4.817  1.00  0.00    -0.011 A 
ATOM     30  C   UNL     1      25.602 -11.379  -4.837  1.00  0.00     0.013 A 
ATOM     31  C   UNL     1      27.274 -10.153  -3.596  1.00  0.00     0.013 A 
ATOM     32  C   UNL     1      24.979 -11.738  -3.642  1.00  0.00     0.047 A 
ATOM     33  C   UNL     1      26.650 -10.512  -2.401  1.00  0.00     0.047 A 
ATOM     34  C   UNL     1      25.503 -11.305  -2.424  1.00  0.00     0.115 A 
BRANCH  34  35
ATOM     35  O   UNL     1      24.893 -11.655  -1.258  1.00  0.00    -0.508 OA
ATOM     36  H   UNL     1      25.552 -12.057  -0.667  1.00  0.00     0.293 HD
ENDBRANCH  34  35
ENDBRANCH  10  29
TORSDOF 9
ENDMDL
