MODEL 1
REMARK VINA RESULT:    -7.292      0.000      0.000
REMARK INTER + INTRA:         -10.605
REMARK INTER:                  -9.850
REMARK INTRA:                  -0.755
REMARK UNBOUND:                -0.755
REMARK SMILES O=c1c(-c2ccc(O)cc2)coc2c([C@@H]3O[C@H](CO)[C@@H](O)[C@H](O)[C@H]3O)c(O)ccc12
REMARK SMILES IDX 12 1 1 2 14 3 13 4 26 5 30 6 28 7 29 8 2 9 3 10 11 11 15 12
REMARK SMILES IDX 16 13 17 14 24 15 20 16 22 17 18 18 19 19 25 21 21 23 23 25
REMARK SMILES IDX 27 27 4 29 5 30 10 31 6 32 9 33 7 34 8 35
REMARK H PARENT 19 20 25 22 21 24 23 26 27 28 8 36
REMARK INDEX MAP 6 1 8 2 15 3 17 4 18 5 19 6 20 7 21 8 22 9 23 10 24 11 12 12
REMARK INDEX MAP 1 13 14 14 10 15 13 16 11 17 16 18 5 19 43 20 2 21 38 22 4 23
REMARK INDEX MAP 40 24 3 25 39 26 7 27 45 28 25 29 26 30 27 31 28 32 29 33
REMARK INDEX MAP 30 34 9 35 50 36
ROOT
ATOM      1  O   UNL     1      28.981 -11.099  -7.453  1.00  0.00    -0.463 OA
ATOM      2  O   UNL     1      29.545 -10.203 -11.393  1.00  0.00    -0.288 OA
ATOM      3  C   UNL     1      26.676 -10.607  -7.606  1.00  0.00     0.069 A 
ATOM      4  C   UNL     1      27.923 -10.700  -8.228  1.00  0.00     0.147 A 
ATOM      5  C   UNL     1      25.563 -10.206  -8.343  1.00  0.00     0.125 A 
ATOM      6  C   UNL     1      28.054 -10.392  -9.580  1.00  0.00     0.066 A 
ATOM      7  C   UNL     1      25.693  -9.897  -9.698  1.00  0.00     0.047 A 
ATOM      8  C   UNL     1      26.939  -9.988 -10.321  1.00  0.00     0.020 A 
ATOM      9  C   UNL     1      29.381 -10.493 -10.215  1.00  0.00     0.200 A 
ATOM     10  C   UNL     1      30.498 -10.949  -9.344  1.00  0.00     0.065 A 
ATOM     11  C   UNL     1      30.208 -11.210  -8.060  1.00  0.00     0.208 A 
ENDROOT
BRANCH   3  12
ATOM     12  C   UNL     1      26.525 -10.940  -6.135  1.00  0.00     0.188 C 
ATOM     13  O   UNL     1      25.837 -12.192  -6.041  1.00  0.00    -0.362 OA
ATOM     14  C   UNL     1      25.716 -12.658  -4.697  1.00  0.00     0.176 C 
ATOM     15  C   UNL     1      25.768  -9.843  -5.372  1.00  0.00     0.179 C 
ATOM     16  C   UNL     1      24.882 -11.674  -3.874  1.00  0.00     0.177 C 
ATOM     17  C   UNL     1      25.487 -10.271  -3.929  1.00  0.00     0.177 C 
BRANCH  14  18
ATOM     18  C   UNL     1      25.072 -14.040  -4.748  1.00  0.00     0.191 C 
BRANCH  18  19
ATOM     19  O   UNL     1      23.710 -13.916  -4.378  1.00  0.00    -0.394 OA
ATOM     20  H   UNL     1      23.623 -13.106  -3.847  1.00  0.00     0.210 HD
ENDBRANCH  18  19
ENDBRANCH  14  18
BRANCH  15  21
ATOM     21  O   UNL     1      26.570  -8.661  -5.357  1.00  0.00    -0.387 OA
ATOM     22  H   UNL     1      27.462  -8.909  -5.062  1.00  0.00     0.211 HD
ENDBRANCH  15  21
BRANCH  16  23
ATOM     23  O   UNL     1      24.837 -12.114  -2.520  1.00  0.00    -0.388 OA
ATOM     24  H   UNL     1      24.335 -11.457  -2.007  1.00  0.00     0.211 HD
ENDBRANCH  16  23
BRANCH  17  25
ATOM     25  O   UNL     1      24.554  -9.366  -3.338  1.00  0.00    -0.387 OA
ATOM     26  H   UNL     1      23.973  -9.887  -2.758  1.00  0.00     0.211 HD
ENDBRANCH  17  25
ENDBRANCH   3  12
BRANCH   5  27
ATOM     27  O   UNL     1      24.337 -10.109  -7.757  1.00  0.00    -0.507 OA
ATOM     28  H   UNL     1      24.449 -10.028  -6.795  1.00  0.00     0.293 HD
ENDBRANCH   5  27
BRANCH  10  29
ATOM     29  C   UNL     1      31.865 -11.131  -9.859  1.00  0.00    -0.011 A 
ATOM     30  C   UNL     1      32.282 -12.384 -10.314  1.00  0.00     0.013 A 
ATOM     31  C   UNL     1      32.749 -10.050  -9.895  1.00  0.00     0.013 A 
ATOM     32  C   UNL     1      33.577 -12.556 -10.802  1.00  0.00     0.047 A 
ATOM     33  C   UNL     1      34.044 -10.223 -10.384  1.00  0.00     0.047 A 
ATOM     34  C   UNL     1      34.459 -11.475 -10.838  1.00  0.00     0.115 A 
BRANCH  34  35
ATOM     35  O   UNL     1      35.722 -11.643 -11.314  1.00  0.00    -0.508 OA
ATOM     36  H   UNL     1      36.329 -11.080 -10.802  1.00  0.00     0.293 HD
ENDBRANCH  34  35
ENDBRANCH  10  29
TORSDOF 9
ENDMDL
MODEL 2
REMARK VINA RESULT:    -7.266      2.346      2.997
REMARK INTER + INTRA:         -10.569
REMARK INTER:                  -9.680
REMARK INTRA:                  -0.889
REMARK UNBOUND:                -0.755
REMARK SMILES O=c1c(-c2ccc(O)cc2)coc2c([C@@H]3O[C@H](CO)[C@@H](O)[C@H](O)[C@H]3O)c(O)ccc12
REMARK SMILES IDX 12 1 1 2 14 3 13 4 26 5 30 6 28 7 29 8 2 9 3 10 11 11 15 12
REMARK SMILES IDX 16 13 17 14 24 15 20 16 22 17 18 18 19 19 25 21 21 23 23 25
REMARK SMILES IDX 27 27 4 29 5 30 10 31 6 32 9 33 7 34 8 35
REMARK H PARENT 19 20 25 22 21 24 23 26 27 28 8 36
REMARK INDEX MAP 6 1 8 2 15 3 17 4 18 5 19 6 20 7 21 8 22 9 23 10 24 11 12 12
REMARK INDEX MAP 1 13 14 14 10 15 13 16 11 17 16 18 5 19 43 20 2 21 38 22 4 23
REMARK INDEX MAP 40 24 3 25 39 26 7 27 45 28 25 29 26 30 27 31 28 32 29 33
REMARK INDEX MAP 30 34 9 35 50 36
ROOT
ATOM      1  O   UNL     1      28.657 -10.958  -6.662  1.00  0.00    -0.463 OA
ATOM      2  O   UNL     1      30.884  -8.668  -9.201  1.00  0.00    -0.288 OA
ATOM      3  C   UNL     1      27.520  -9.057  -5.844  1.00  0.00     0.069 A 
ATOM      4  C   UNL     1      28.476  -9.600  -6.705  1.00  0.00     0.147 A 
ATOM      5  C   UNL     1      27.291  -7.681  -5.842  1.00  0.00     0.125 A 
ATOM      6  C   UNL     1      29.199  -8.770  -7.559  1.00  0.00     0.066 A 
ATOM      7  C   UNL     1      28.016  -6.850  -6.697  1.00  0.00     0.047 A 
ATOM      8  C   UNL     1      28.972  -7.391  -7.558  1.00  0.00     0.020 A 
ATOM      9  C   UNL     1      30.207  -9.365  -8.456  1.00  0.00     0.200 A 
ATOM     10  C   UNL     1      30.358 -10.845  -8.392  1.00  0.00     0.065 A 
ATOM     11  C   UNL     1      29.583 -11.504  -7.518  1.00  0.00     0.208 A 
ENDROOT
BRANCH   3  12
ATOM     12  C   UNL     1      26.729  -9.953  -4.912  1.00  0.00     0.188 C 
ATOM     13  O   UNL     1      25.429  -9.374  -4.751  1.00  0.00    -0.362 OA
ATOM     14  C   UNL     1      24.557 -10.183  -3.962  1.00  0.00     0.176 C 
ATOM     15  C   UNL     1      27.422 -10.121  -3.551  1.00  0.00     0.179 C 
ATOM     16  C   UNL     1      25.114 -10.325  -2.544  1.00  0.00     0.177 C 
ATOM     17  C   UNL     1      26.533 -10.894  -2.573  1.00  0.00     0.177 C 
BRANCH  14  18
ATOM     18  C   UNL     1      23.185  -9.515  -3.965  1.00  0.00     0.191 C 
BRANCH  18  19
ATOM     19  O   UNL     1      23.364  -8.121  -4.146  1.00  0.00    -0.394 OA
ATOM     20  H   UNL     1      22.490  -7.701  -4.073  1.00  0.00     0.210 HD
ENDBRANCH  18  19
ENDBRANCH  14  18
BRANCH  15  21
ATOM     21  O   UNL     1      28.638 -10.845  -3.745  1.00  0.00    -0.387 OA
ATOM     22  H   UNL     1      29.300 -10.229  -4.101  1.00  0.00     0.211 HD
ENDBRANCH  15  21
BRANCH  16  23
ATOM     23  O   UNL     1      24.274 -11.197  -1.793  1.00  0.00    -0.388 OA
ATOM     24  H   UNL     1      24.104 -11.989  -2.332  1.00  0.00     0.211 HD
ENDBRANCH  16  23
BRANCH  17  25
ATOM     25  O   UNL     1      27.076 -10.793  -1.256  1.00  0.00    -0.387 OA
ATOM     26  H   UNL     1      26.327 -10.725  -0.639  1.00  0.00     0.211 HD
ENDBRANCH  17  25
ENDBRANCH   3  12
BRANCH   5  27
ATOM     27  O   UNL     1      26.364  -7.130  -5.011  1.00  0.00    -0.507 OA
ATOM     28  H   UNL     1      26.186  -6.217  -5.292  1.00  0.00     0.293 HD
ENDBRANCH   5  27
BRANCH  10  29
ATOM     29  C   UNL     1      31.298 -11.570  -9.261  1.00  0.00    -0.011 A 
ATOM     30  C   UNL     1      32.672 -11.502  -9.020  1.00  0.00     0.013 A 
ATOM     31  C   UNL     1      30.820 -12.330 -10.331  1.00  0.00     0.013 A 
ATOM     32  C   UNL     1      33.563 -12.190  -9.843  1.00  0.00     0.047 A 
ATOM     33  C   UNL     1      31.711 -13.019 -11.155  1.00  0.00     0.047 A 
ATOM     34  C   UNL     1      33.082 -12.949 -10.911  1.00  0.00     0.115 A 
BRANCH  34  35
ATOM     35  O   UNL     1      33.951 -13.619 -11.715  1.00  0.00    -0.508 OA
ATOM     36  H   UNL     1      33.485 -13.894 -12.523  1.00  0.00     0.293 HD
ENDBRANCH  34  35
ENDBRANCH  10  29
TORSDOF 9
ENDMDL
MODEL 3
REMARK VINA RESULT:    -7.208      1.118      1.638
REMARK INTER + INTRA:         -10.491
REMARK INTER:                  -9.357
REMARK INTRA:                  -1.134
REMARK UNBOUND:                -0.755
REMARK SMILES O=c1c(-c2ccc(O)cc2)coc2c([C@@H]3O[C@H](CO)[C@@H](O)[C@H](O)[C@H]3O)c(O)ccc12
REMARK SMILES IDX 12 1 1 2 14 3 13 4 26 5 30 6 28 7 29 8 2 9 3 10 11 11 15 12
REMARK SMILES IDX 16 13 17 14 24 15 20 16 22 17 18 18 19 19 25 21 21 23 23 25
REMARK SMILES IDX 27 27 4 29 5 30 10 31 6 32 9 33 7 34 8 35
REMARK H PARENT 19 20 25 22 21 24 23 26 27 28 8 36
REMARK INDEX MAP 6 1 8 2 15 3 17 4 18 5 19 6 20 7 21 8 22 9 23 10 24 11 12 12
REMARK INDEX MAP 1 13 14 14 10 15 13 16 11 17 16 18 5 19 43 20 2 21 38 22 4 23
REMARK INDEX MAP 40 24 3 25 39 26 7 27 45 28 25 29 26 30 27 31 28 32 29 33
REMARK INDEX MAP 30 34 9 35 50 36
ROOT
ATOM      1  O   UNL     1      28.952 -10.152  -7.314  1.00  0.00    -0.463 OA
ATOM      2  O   UNL     1      29.488  -9.273 -11.262  1.00  0.00    -0.288 OA
ATOM      3  C   UNL     1      26.655 -10.578  -7.656  1.00  0.00     0.069 A 
ATOM      4  C   UNL     1      27.895 -10.217  -8.185  1.00  0.00     0.147 A 
ATOM      5  C   UNL     1      25.542 -10.660  -8.493  1.00  0.00     0.125 A 
ATOM      6  C   UNL     1      28.021  -9.938  -9.544  1.00  0.00     0.066 A 
ATOM      7  C   UNL     1      25.668 -10.380  -9.854  1.00  0.00     0.047 A 
ATOM      8  C   UNL     1      26.907 -10.019 -10.384  1.00  0.00     0.020 A 
ATOM      9  C   UNL     1      29.341  -9.555 -10.080  1.00  0.00     0.200 A 
ATOM     10  C   UNL     1      30.465  -9.516  -9.105  1.00  0.00     0.065 A 
ATOM     11  C   UNL     1      30.181  -9.815  -7.828  1.00  0.00     0.208 A 
ENDROOT
BRANCH   3  12
ATOM     12  C   UNL     1      26.509 -10.882  -6.178  1.00  0.00     0.188 C 
ATOM     13  O   UNL     1      25.874 -12.159  -6.058  1.00  0.00    -0.362 OA
ATOM     14  C   UNL     1      25.765 -12.598  -4.704  1.00  0.00     0.176 C 
ATOM     15  C   UNL     1      25.701  -9.800  -5.446  1.00  0.00     0.179 C 
ATOM     16  C   UNL     1      24.885 -11.632  -3.909  1.00  0.00     0.177 C 
ATOM     17  C   UNL     1      25.429 -10.205  -3.995  1.00  0.00     0.177 C 
BRANCH  14  18
ATOM     18  C   UNL     1      25.182 -14.007  -4.724  1.00  0.00     0.191 C 
BRANCH  18  19
ATOM     19  O   UNL     1      23.783 -13.918  -4.525  1.00  0.00    -0.394 OA
ATOM     20  H   UNL     1      23.575 -12.994  -4.306  1.00  0.00     0.210 HD
ENDBRANCH  18  19
ENDBRANCH  14  18
BRANCH  15  21
ATOM     21  O   UNL     1      26.450  -8.585  -5.455  1.00  0.00    -0.387 OA
ATOM     22  H   UNL     1      26.412  -8.217  -6.354  1.00  0.00     0.211 HD
ENDBRANCH  15  21
BRANCH  16  23
ATOM     23  O   UNL     1      24.850 -12.040  -2.544  1.00  0.00    -0.388 OA
ATOM     24  H   UNL     1      25.271 -11.344  -2.011  1.00  0.00     0.211 HD
ENDBRANCH  16  23
BRANCH  17  25
ATOM     25  O   UNL     1      24.455  -9.327  -3.430  1.00  0.00    -0.387 OA
ATOM     26  H   UNL     1      24.736  -9.130  -2.520  1.00  0.00     0.211 HD
ENDBRANCH  17  25
ENDBRANCH   3  12
BRANCH   5  27
ATOM     27  O   UNL     1      24.323 -11.010  -7.998  1.00  0.00    -0.507 OA
ATOM     28  H   UNL     1      24.445 -11.564  -7.209  1.00  0.00     0.293 HD
ENDBRANCH   5  27
BRANCH  10  29
ATOM     29  C   UNL     1      31.840  -9.188  -9.513  1.00  0.00    -0.011 A 
ATOM     30  C   UNL     1      32.310  -7.877  -9.405  1.00  0.00     0.013 A 
ATOM     31  C   UNL     1      32.681 -10.187 -10.011  1.00  0.00     0.013 A 
ATOM     32  C   UNL     1      33.614  -7.566  -9.792  1.00  0.00     0.047 A 
ATOM     33  C   UNL     1      33.984  -9.876 -10.398  1.00  0.00     0.047 A 
ATOM     34  C   UNL     1      34.451  -8.566 -10.289  1.00  0.00     0.115 A 
BRANCH  34  35
ATOM     35  O   UNL     1      35.722  -8.262 -10.667  1.00  0.00    -0.508 OA
ATOM     36  H   UNL     1      36.146  -9.064 -11.019  1.00  0.00     0.293 HD
ENDBRANCH  34  35
ENDBRANCH  10  29
TORSDOF 9
ENDMDL
MODEL 4
REMARK VINA RESULT:    -7.095      2.236      3.127
REMARK INTER + INTRA:         -10.338
REMARK INTER:                  -9.357
REMARK INTRA:                  -0.982
REMARK UNBOUND:                -0.755
REMARK SMILES O=c1c(-c2ccc(O)cc2)coc2c([C@@H]3O[C@H](CO)[C@@H](O)[C@H](O)[C@H]3O)c(O)ccc12
REMARK SMILES IDX 12 1 1 2 14 3 13 4 26 5 30 6 28 7 29 8 2 9 3 10 11 11 15 12
REMARK SMILES IDX 16 13 17 14 24 15 20 16 22 17 18 18 19 19 25 21 21 23 23 25
REMARK SMILES IDX 27 27 4 29 5 30 10 31 6 32 9 33 7 34 8 35
REMARK H PARENT 19 20 25 22 21 24 23 26 27 28 8 36
REMARK INDEX MAP 6 1 8 2 15 3 17 4 18 5 19 6 20 7 21 8 22 9 23 10 24 11 12 12
REMARK INDEX MAP 1 13 14 14 10 15 13 16 11 17 16 18 5 19 43 20 2 21 38 22 4 23
REMARK INDEX MAP 40 24 3 25 39 26 7 27 45 28 25 29 26 30 27 31 28 32 29 33
REMARK INDEX MAP 30 34 9 35 50 36
ROOT
ATOM      1  O   UNL     1      27.837 -10.400  -7.335  1.00  0.00    -0.463 OA
ATOM      2  O   UNL     1      29.645  -7.860  -9.967  1.00  0.00    -0.288 OA
ATOM      3  C   UNL     1      26.825  -8.597  -6.194  1.00  0.00     0.069 A 
ATOM      4  C   UNL     1      27.643  -9.047  -7.231  1.00  0.00     0.147 A 
ATOM      5  C   UNL     1      26.592  -7.232  -6.037  1.00  0.00     0.125 A 
ATOM      6  C   UNL     1      28.226  -8.134  -8.108  1.00  0.00     0.066 A 
ATOM      7  C   UNL     1      27.176  -6.316  -6.914  1.00  0.00     0.047 A 
ATOM      8  C   UNL     1      27.995  -6.764  -7.952  1.00  0.00     0.020 A 
ATOM      9  C   UNL     1      29.090  -8.631  -9.194  1.00  0.00     0.200 A 
ATOM     10  C   UNL     1      29.258 -10.108  -9.283  1.00  0.00     0.065 A 
ATOM     11  C   UNL     1      28.626 -10.854  -8.364  1.00  0.00     0.208 A 
ENDROOT
BRANCH   3  12
ATOM     12  C   UNL     1      26.188  -9.584  -5.236  1.00  0.00     0.188 C 
ATOM     13  O   UNL     1      24.895  -9.078  -4.886  1.00  0.00    -0.362 OA
ATOM     14  C   UNL     1      24.157  -9.973  -4.055  1.00  0.00     0.176 C 
ATOM     15  C   UNL     1      27.046  -9.802  -3.980  1.00  0.00     0.179 C 
ATOM     16  C   UNL     1      24.885 -10.175  -2.725  1.00  0.00     0.177 C 
ATOM     17  C   UNL     1      26.312 -10.674  -2.958  1.00  0.00     0.177 C 
BRANCH  14  18
ATOM     18  C   UNL     1      22.769  -9.371  -3.853  1.00  0.00     0.191 C 
BRANCH  18  19
ATOM     19  O   UNL     1      22.841  -7.980  -4.105  1.00  0.00    -0.394 OA
ATOM     20  H   UNL     1      23.044  -7.862  -5.049  1.00  0.00     0.210 HD
ENDBRANCH  18  19
ENDBRANCH  14  18
BRANCH  15  21
ATOM     21  O   UNL     1      28.257 -10.455  -4.362  1.00  0.00    -0.387 OA
ATOM     22  H   UNL     1      28.640  -9.963  -5.108  1.00  0.00     0.211 HD
ENDBRANCH  15  21
BRANCH  16  23
ATOM     23  O   UNL     1      24.176 -11.129  -1.939  1.00  0.00    -0.388 OA
ATOM     24  H   UNL     1      24.755 -11.408  -1.209  1.00  0.00     0.211 HD
ENDBRANCH  16  23
BRANCH  17  25
ATOM     25  O   UNL     1      27.004 -10.628  -1.709  1.00  0.00    -0.387 OA
ATOM     26  H   UNL     1      27.787 -11.200  -1.792  1.00  0.00     0.211 HD
ENDBRANCH  17  25
ENDBRANCH   3  12
BRANCH   5  27
ATOM     27  O   UNL     1      25.797  -6.771  -5.032  1.00  0.00    -0.507 OA
ATOM     28  H   UNL     1      25.073  -7.402  -4.882  1.00  0.00     0.293 HD
ENDBRANCH   5  27
BRANCH  10  29
ATOM     29  C   UNL     1      30.060 -10.739 -10.343  1.00  0.00    -0.011 A 
ATOM     30  C   UNL     1      29.448 -11.187 -11.515  1.00  0.00     0.013 A 
ATOM     31  C   UNL     1      31.439 -10.891 -10.180  1.00  0.00     0.013 A 
ATOM     32  C   UNL     1      30.209 -11.784 -12.519  1.00  0.00     0.047 A 
ATOM     33  C   UNL     1      32.201 -11.489 -11.185  1.00  0.00     0.047 A 
ATOM     34  C   UNL     1      31.586 -11.936 -12.354  1.00  0.00     0.115 A 
BRANCH  34  35
ATOM     35  O   UNL     1      32.329 -12.520 -13.334  1.00  0.00    -0.508 OA
ATOM     36  H   UNL     1      32.366 -13.478 -13.171  1.00  0.00     0.293 HD
ENDBRANCH  34  35
ENDBRANCH  10  29
TORSDOF 9
ENDMDL
MODEL 5
REMARK VINA RESULT:    -7.028      2.370      5.627
REMARK INTER + INTRA:         -10.248
REMARK INTER:                  -9.847
REMARK INTRA:                  -0.401
REMARK UNBOUND:                -0.755
REMARK SMILES O=c1c(-c2ccc(O)cc2)coc2c([C@@H]3O[C@H](CO)[C@@H](O)[C@H](O)[C@H]3O)c(O)ccc12
REMARK SMILES IDX 12 1 1 2 14 3 13 4 26 5 30 6 28 7 29 8 2 9 3 10 11 11 15 12
REMARK SMILES IDX 16 13 17 14 24 15 20 16 22 17 18 18 19 19 25 21 21 23 23 25
REMARK SMILES IDX 27 27 4 29 5 30 10 31 6 32 9 33 7 34 8 35
REMARK H PARENT 19 20 25 22 21 24 23 26 27 28 8 36
REMARK INDEX MAP 6 1 8 2 15 3 17 4 18 5 19 6 20 7 21 8 22 9 23 10 24 11 12 12
REMARK INDEX MAP 1 13 14 14 10 15 13 16 11 17 16 18 5 19 43 20 2 21 38 22 4 23
REMARK INDEX MAP 40 24 3 25 39 26 7 27 45 28 25 29 26 30 27 31 28 32 29 33
REMARK INDEX MAP 30 34 9 35 50 36
ROOT
ATOM      1  O   UNL     1      26.266  -9.997  -7.813  1.00  0.00    -0.463 OA
ATOM      2  O   UNL     1      27.977  -9.100 -11.408  1.00  0.00    -0.288 OA
ATOM      3  C   UNL     1      28.259 -11.006  -7.046  1.00  0.00     0.069 A 
ATOM      4  C   UNL     1      27.571 -10.339  -8.061  1.00  0.00     0.147 A 
ATOM      5  C   UNL     1      29.588 -11.380  -7.240  1.00  0.00     0.125 A 
ATOM      6  C   UNL     1      28.209 -10.049  -9.265  1.00  0.00     0.066 A 
ATOM      7  C   UNL     1      30.228 -11.090  -8.446  1.00  0.00     0.047 A 
ATOM      8  C   UNL     1      29.541 -10.424  -9.462  1.00  0.00     0.020 A 
ATOM      9  C   UNL     1      27.462  -9.347 -10.325  1.00  0.00     0.200 A 
ATOM     10  C   UNL     1      26.055  -8.976 -10.008  1.00  0.00     0.065 A 
ATOM     11  C   UNL     1      25.586  -9.325  -8.800  1.00  0.00     0.208 A 
ENDROOT
BRANCH   3  12
ATOM     12  C   UNL     1      27.571 -11.325  -5.734  1.00  0.00     0.188 C 
ATOM     13  O   UNL     1      26.664 -12.408  -5.971  1.00  0.00    -0.362 OA
ATOM     14  C   UNL     1      26.020 -12.861  -4.780  1.00  0.00     0.176 C 
ATOM     15  C   UNL     1      26.828 -10.108  -5.163  1.00  0.00     0.179 C 
ATOM     16  C   UNL     1      25.165 -11.740  -4.187  1.00  0.00     0.177 C 
ATOM     17  C   UNL     1      26.010 -10.492  -3.928  1.00  0.00     0.177 C 
BRANCH  14  18
ATOM     18  C   UNL     1      25.178 -14.078  -5.150  1.00  0.00     0.191 C 
BRANCH  18  19
ATOM     19  O   UNL     1      25.239 -15.009  -4.085  1.00  0.00    -0.394 OA
ATOM     20  H   UNL     1      25.971 -15.622  -4.272  1.00  0.00     0.210 HD
ENDBRANCH  18  19
ENDBRANCH  14  18
BRANCH  15  21
ATOM     21  O   UNL     1      27.790  -9.119  -4.793  1.00  0.00    -0.387 OA
ATOM     22  H   UNL     1      28.393  -8.993  -5.545  1.00  0.00     0.211 HD
ENDBRANCH  15  21
BRANCH  16  23
ATOM     23  O   UNL     1      24.593 -12.183  -2.960  1.00  0.00    -0.388 OA
ATOM     24  H   UNL     1      23.912 -11.541  -2.696  1.00  0.00     0.211 HD
ENDBRANCH  16  23
BRANCH  17  25
ATOM     25  O   UNL     1      25.126  -9.423  -3.591  1.00  0.00    -0.387 OA
ATOM     26  H   UNL     1      24.420  -9.410  -4.260  1.00  0.00     0.211 HD
ENDBRANCH  17  25
ENDBRANCH   3  12
BRANCH   5  27
ATOM     27  O   UNL     1      30.278 -12.031  -6.264  1.00  0.00    -0.507 OA
ATOM     28  H   UNL     1      30.543 -11.393  -5.580  1.00  0.00     0.293 HD
ENDBRANCH   5  27
BRANCH  10  29
ATOM     29  C   UNL     1      25.209  -8.239 -10.960  1.00  0.00    -0.011 A 
ATOM     30  C   UNL     1      24.600  -8.910 -12.022  1.00  0.00     0.013 A 
ATOM     31  C   UNL     1      25.014  -6.865 -10.805  1.00  0.00     0.013 A 
ATOM     32  C   UNL     1      23.798  -8.211 -12.924  1.00  0.00     0.047 A 
ATOM     33  C   UNL     1      24.212  -6.166 -11.707  1.00  0.00     0.047 A 
ATOM     34  C   UNL     1      23.604  -6.839 -12.767  1.00  0.00     0.115 A 
BRANCH  34  35
ATOM     35  O   UNL     1      22.823  -6.157 -13.648  1.00  0.00    -0.508 OA
ATOM     36  H   UNL     1      23.304  -5.367 -13.949  1.00  0.00     0.293 HD
ENDBRANCH  34  35
ENDBRANCH  10  29
TORSDOF 9
ENDMDL
MODEL 6
REMARK VINA RESULT:    -7.005      2.733      5.713
REMARK INTER + INTRA:         -10.217
REMARK INTER:                  -9.401
REMARK INTRA:                  -0.815
REMARK UNBOUND:                -0.755
REMARK SMILES O=c1c(-c2ccc(O)cc2)coc2c([C@@H]3O[C@H](CO)[C@@H](O)[C@H](O)[C@H]3O)c(O)ccc12
REMARK SMILES IDX 12 1 1 2 14 3 13 4 26 5 30 6 28 7 29 8 2 9 3 10 11 11 15 12
REMARK SMILES IDX 16 13 17 14 24 15 20 16 22 17 18 18 19 19 25 21 21 23 23 25
REMARK SMILES IDX 27 27 4 29 5 30 10 31 6 32 9 33 7 34 8 35
REMARK H PARENT 19 20 25 22 21 24 23 26 27 28 8 36
REMARK INDEX MAP 6 1 8 2 15 3 17 4 18 5 19 6 20 7 21 8 22 9 23 10 24 11 12 12
REMARK INDEX MAP 1 13 14 14 10 15 13 16 11 17 16 18 5 19 43 20 2 21 38 22 4 23
REMARK INDEX MAP 40 24 3 25 39 26 7 27 45 28 25 29 26 30 27 31 28 32 29 33
REMARK INDEX MAP 30 34 9 35 50 36
ROOT
ATOM      1  O   UNL     1      25.890  -9.440  -8.502  1.00  0.00    -0.463 OA
ATOM      2  O   UNL     1      28.429  -9.183 -11.687  1.00  0.00    -0.288 OA
ATOM      3  C   UNL     1      27.527 -10.546  -7.207  1.00  0.00     0.069 A 
ATOM      4  C   UNL     1      27.162  -9.944  -8.413  1.00  0.00     0.147 A 
ATOM      5  C   UNL     1      28.807 -11.076  -7.057  1.00  0.00     0.125 A 
ATOM      6  C   UNL     1      28.075  -9.875  -9.463  1.00  0.00     0.066 A 
ATOM      7  C   UNL     1      29.722 -11.008  -8.109  1.00  0.00     0.047 A 
ATOM      8  C   UNL     1      29.359 -10.407  -9.315  1.00  0.00     0.020 A 
ATOM      9  C   UNL     1      27.667  -9.238 -10.730  1.00  0.00     0.200 A 
ATOM     10  C   UNL     1      26.285  -8.687 -10.778  1.00  0.00     0.065 A 
ATOM     11  C   UNL     1      25.528  -8.831  -9.679  1.00  0.00     0.208 A 
ENDROOT
BRANCH   3  12
ATOM     12  C   UNL     1      26.539 -10.625  -6.060  1.00  0.00     0.188 C 
ATOM     13  O   UNL     1      27.281 -10.517  -4.840  1.00  0.00    -0.362 OA
ATOM     14  C   UNL     1      26.444 -10.487  -3.684  1.00  0.00     0.176 C 
ATOM     15  C   UNL     1      25.727 -11.929  -6.091  1.00  0.00     0.179 C 
ATOM     16  C   UNL     1      25.662 -11.798  -3.568  1.00  0.00     0.177 C 
ATOM     17  C   UNL     1      24.855 -12.062  -4.840  1.00  0.00     0.177 C 
BRANCH  14  18
ATOM     18  C   UNL     1      27.343 -10.257  -2.473  1.00  0.00     0.191 C 
BRANCH  18  19
ATOM     19  O   UNL     1      28.599  -9.788  -2.928  1.00  0.00    -0.394 OA
ATOM     20  H   UNL     1      29.243 -10.506  -2.806  1.00  0.00     0.210 HD
ENDBRANCH  18  19
ENDBRANCH  14  18
BRANCH  15  21
ATOM     21  O   UNL     1      24.885 -11.915  -7.244  1.00  0.00    -0.387 OA
ATOM     22  H   UNL     1      25.154 -11.165  -7.801  1.00  0.00     0.211 HD
ENDBRANCH  15  21
BRANCH  16  23
ATOM     23  O   UNL     1      24.775 -11.720  -2.456  1.00  0.00    -0.388 OA
ATOM     24  H   UNL     1      23.868 -11.649  -2.799  1.00  0.00     0.211 HD
ENDBRANCH  16  23
BRANCH  17  25
ATOM     25  O   UNL     1      24.333 -13.389  -4.762  1.00  0.00    -0.387 OA
ATOM     26  H   UNL     1      23.646 -13.471  -5.446  1.00  0.00     0.211 HD
ENDBRANCH  17  25
ENDBRANCH   3  12
BRANCH   5  27
ATOM     27  O   UNL     1      29.184 -11.668  -5.889  1.00  0.00    -0.507 OA
ATOM     28  H   UNL     1      30.146 -11.810  -5.899  1.00  0.00     0.293 HD
ENDBRANCH   5  27
BRANCH  10  29
ATOM     29  C   UNL     1      25.764  -7.992 -11.965  1.00  0.00    -0.011 A 
ATOM     30  C   UNL     1      24.773  -8.587 -12.748  1.00  0.00     0.013 A 
ATOM     31  C   UNL     1      26.259  -6.733 -12.314  1.00  0.00     0.013 A 
ATOM     32  C   UNL     1      24.279  -7.928 -13.874  1.00  0.00     0.047 A 
ATOM     33  C   UNL     1      25.765  -6.074 -13.439  1.00  0.00     0.047 A 
ATOM     34  C   UNL     1      24.775  -6.670 -14.220  1.00  0.00     0.115 A 
BRANCH  34  35
ATOM     35  O   UNL     1      24.294  -6.028 -15.318  1.00  0.00    -0.508 OA
ATOM     36  H   UNL     1      24.875  -5.275 -15.522  1.00  0.00     0.293 HD
ENDBRANCH  34  35
ENDBRANCH  10  29
TORSDOF 9
ENDMDL
MODEL 7
REMARK VINA RESULT:    -6.848      2.986      7.900
REMARK INTER + INTRA:         -10.004
REMARK INTER:                  -9.456
REMARK INTRA:                  -0.548
REMARK UNBOUND:                -0.755
REMARK SMILES O=c1c(-c2ccc(O)cc2)coc2c([C@@H]3O[C@H](CO)[C@@H](O)[C@H](O)[C@H]3O)c(O)ccc12
REMARK SMILES IDX 12 1 1 2 14 3 13 4 26 5 30 6 28 7 29 8 2 9 3 10 11 11 15 12
REMARK SMILES IDX 16 13 17 14 24 15 20 16 22 17 18 18 19 19 25 21 21 23 23 25
REMARK SMILES IDX 27 27 4 29 5 30 10 31 6 32 9 33 7 34 8 35
REMARK H PARENT 19 20 25 22 21 24 23 26 27 28 8 36
REMARK INDEX MAP 6 1 8 2 15 3 17 4 18 5 19 6 20 7 21 8 22 9 23 10 24 11 12 12
REMARK INDEX MAP 1 13 14 14 10 15 13 16 11 17 16 18 5 19 43 20 2 21 38 22 4 23
REMARK INDEX MAP 40 24 3 25 39 26 7 27 45 28 25 29 26 30 27 31 28 32 29 33
REMARK INDEX MAP 30 34 9 35 50 36
ROOT
ATOM      1  O   UNL     1      26.120  -8.813  -8.458  1.00  0.00    -0.463 OA
ATOM      2  O   UNL     1      28.464 -11.644  -6.685  1.00  0.00    -0.288 OA
ATOM      3  C   UNL     1      27.379  -8.929 -10.452  1.00  0.00     0.069 A 
ATOM      4  C   UNL     1      27.162  -9.376  -9.148  1.00  0.00     0.147 A 
ATOM      5  C   UNL     1      28.425  -9.465 -11.203  1.00  0.00     0.125 A 
ATOM      6  C   UNL     1      27.988 -10.354  -8.597  1.00  0.00     0.066 A 
ATOM      7  C   UNL     1      29.253 -10.444 -10.652  1.00  0.00     0.047 A 
ATOM      8  C   UNL     1      29.037 -10.892  -9.348  1.00  0.00     0.020 A 
ATOM      9  C   UNL     1      27.743 -10.809  -7.216  1.00  0.00     0.200 A 
ATOM     10  C   UNL     1      26.590 -10.186  -6.510  1.00  0.00     0.065 A 
ATOM     11  C   UNL     1      25.887  -9.259  -7.179  1.00  0.00     0.208 A 
ENDROOT
BRANCH   3  12
ATOM     12  C   UNL     1      26.485  -7.865 -11.057  1.00  0.00     0.188 C 
ATOM     13  O   UNL     1      26.652  -6.668 -10.289  1.00  0.00    -0.362 OA
ATOM     14  C   UNL     1      25.925  -5.562 -10.823  1.00  0.00     0.176 C 
ATOM     15  C   UNL     1      25.011  -8.298 -11.080  1.00  0.00     0.179 C 
ATOM     16  C   UNL     1      24.424  -5.857 -10.791  1.00  0.00     0.177 C 
ATOM     17  C   UNL     1      24.109  -7.151 -11.544  1.00  0.00     0.177 C 
BRANCH  14  18
ATOM     18  C   UNL     1      26.276  -4.336  -9.985  1.00  0.00     0.191 C 
BRANCH  18  19
ATOM     19  O   UNL     1      25.231  -4.109  -9.058  1.00  0.00    -0.394 OA
ATOM     20  H   UNL     1      25.455  -3.310  -8.552  1.00  0.00     0.210 HD
ENDBRANCH  18  19
ENDBRANCH  14  18
BRANCH  15  21
ATOM     21  O   UNL     1      24.871  -9.394 -11.985  1.00  0.00    -0.387 OA
ATOM     22  H   UNL     1      25.074 -10.210 -11.498  1.00  0.00     0.211 HD
ENDBRANCH  15  21
BRANCH  16  23
ATOM     23  O   UNL     1      23.719  -4.778 -11.398  1.00  0.00    -0.388 OA
ATOM     24  H   UNL     1      24.368  -4.104 -11.661  1.00  0.00     0.211 HD
ENDBRANCH  16  23
BRANCH  17  25
ATOM     25  O   UNL     1      22.744  -7.487 -11.291  1.00  0.00    -0.387 OA
ATOM     26  H   UNL     1      22.421  -6.884 -10.600  1.00  0.00     0.211 HD
ENDBRANCH  17  25
ENDBRANCH   3  12
BRANCH   5  27
ATOM     27  O   UNL     1      28.655  -9.043 -12.478  1.00  0.00    -0.507 OA
ATOM     28  H   UNL     1      28.786  -9.817 -13.051  1.00  0.00     0.293 HD
ENDBRANCH   5  27
BRANCH  10  29
ATOM     29  C   UNL     1      26.210 -10.576  -5.143  1.00  0.00    -0.011 A 
ATOM     30  C   UNL     1      26.925 -10.085  -4.049  1.00  0.00     0.013 A 
ATOM     31  C   UNL     1      25.132 -11.439  -4.935  1.00  0.00     0.013 A 
ATOM     32  C   UNL     1      26.565 -10.455  -2.753  1.00  0.00     0.047 A 
ATOM     33  C   UNL     1      24.771 -11.809  -3.639  1.00  0.00     0.047 A 
ATOM     34  C   UNL     1      25.487 -11.318  -2.548  1.00  0.00     0.115 A 
BRANCH  34  35
ATOM     35  O   UNL     1      25.137 -11.679  -1.284  1.00  0.00    -0.508 OA
ATOM     36  H   UNL     1      25.019 -12.644  -1.253  1.00  0.00     0.293 HD
ENDBRANCH  34  35
ENDBRANCH  10  29
TORSDOF 9
ENDMDL
MODEL 8
REMARK VINA RESULT:    -6.787      4.104      5.383
REMARK INTER + INTRA:          -9.923
REMARK INTER:                  -9.610
REMARK INTRA:                  -0.313
REMARK UNBOUND:                -0.755
REMARK SMILES O=c1c(-c2ccc(O)cc2)coc2c([C@@H]3O[C@H](CO)[C@@H](O)[C@H](O)[C@H]3O)c(O)ccc12
REMARK SMILES IDX 12 1 1 2 14 3 13 4 26 5 30 6 28 7 29 8 2 9 3 10 11 11 15 12
REMARK SMILES IDX 16 13 17 14 24 15 20 16 22 17 18 18 19 19 25 21 21 23 23 25
REMARK SMILES IDX 27 27 4 29 5 30 10 31 6 32 9 33 7 34 8 35
REMARK H PARENT 19 20 25 22 21 24 23 26 27 28 8 36
REMARK INDEX MAP 6 1 8 2 15 3 17 4 18 5 19 6 20 7 21 8 22 9 23 10 24 11 12 12
REMARK INDEX MAP 1 13 14 14 10 15 13 16 11 17 16 18 5 19 43 20 2 21 38 22 4 23
REMARK INDEX MAP 40 24 3 25 39 26 7 27 45 28 25 29 26 30 27 31 28 32 29 33
REMARK INDEX MAP 30 34 9 35 50 36
ROOT
ATOM      1  O   UNL     1      26.885  -8.109  -5.974  1.00  0.00    -0.463 OA
ATOM      2  O   UNL     1      28.398  -6.530  -9.419  1.00  0.00    -0.288 OA
ATOM      3  C   UNL     1      25.823  -9.850  -7.165  1.00  0.00     0.069 A 
ATOM      4  C   UNL     1      26.625  -8.708  -7.180  1.00  0.00     0.147 A 
ATOM      5  C   UNL     1      25.524 -10.502  -8.361  1.00  0.00     0.125 A 
ATOM      6  C   UNL     1      27.123  -8.220  -8.386  1.00  0.00     0.066 A 
ATOM      7  C   UNL     1      26.022 -10.014  -9.569  1.00  0.00     0.047 A 
ATOM      8  C   UNL     1      26.824  -8.871  -9.586  1.00  0.00     0.020 A 
ATOM      9  C   UNL     1      27.965  -7.009  -8.379  1.00  0.00     0.200 A 
ATOM     10  C   UNL     1      28.239  -6.402  -7.047  1.00  0.00     0.065 A 
ATOM     11  C   UNL     1      27.687  -6.994  -5.977  1.00  0.00     0.208 A 
ENDROOT
BRANCH   3  12
ATOM     12  C   UNL     1      25.276 -10.387  -5.857  1.00  0.00     0.188 C 
ATOM     13  O   UNL     1      24.270  -9.476  -5.400  1.00  0.00    -0.362 OA
ATOM     14  C   UNL     1      23.614  -9.926  -4.215  1.00  0.00     0.176 C 
ATOM     15  C   UNL     1      26.378 -10.558  -4.801  1.00  0.00     0.179 C 
ATOM     16  C   UNL     1      24.619 -10.029  -3.066  1.00  0.00     0.177 C 
ATOM     17  C   UNL     1      25.783 -10.945  -3.444  1.00  0.00     0.177 C 
BRANCH  14  18
ATOM     18  C   UNL     1      22.500  -8.931  -3.903  1.00  0.00     0.191 C 
BRANCH  18  19
ATOM     19  O   UNL     1      22.965  -7.627  -4.200  1.00  0.00    -0.394 OA
ATOM     20  H   UNL     1      22.271  -7.177  -4.712  1.00  0.00     0.210 HD
ENDBRANCH  18  19
ENDBRANCH  14  18
BRANCH  15  21
ATOM     21  O   UNL     1      27.266 -11.591  -5.230  1.00  0.00    -0.387 OA
ATOM     22  H   UNL     1      27.730 -11.930  -4.447  1.00  0.00     0.211 HD
ENDBRANCH  15  21
BRANCH  16  23
ATOM     23  O   UNL     1      23.964 -10.553  -1.914  1.00  0.00    -0.388 OA
ATOM     24  H   UNL     1      24.567 -11.185  -1.486  1.00  0.00     0.211 HD
ENDBRANCH  16  23
BRANCH  17  25
ATOM     25  O   UNL     1      26.785 -10.825  -2.434  1.00  0.00    -0.387 OA
ATOM     26  H   UNL     1      26.791  -9.897  -2.141  1.00  0.00     0.211 HD
ENDBRANCH  17  25
ENDBRANCH   3  12
BRANCH   5  27
ATOM     27  O   UNL     1      24.744 -11.619  -8.370  1.00  0.00    -0.507 OA
ATOM     28  H   UNL     1      24.192 -11.617  -9.170  1.00  0.00     0.293 HD
ENDBRANCH   5  27
BRANCH  10  29
ATOM     29  C   UNL     1      29.095  -5.215  -6.893  1.00  0.00    -0.011 A 
ATOM     30  C   UNL     1      28.522  -3.953  -6.728  1.00  0.00     0.013 A 
ATOM     31  C   UNL     1      30.486  -5.347  -6.911  1.00  0.00     0.013 A 
ATOM     32  C   UNL     1      29.334  -2.828  -6.581  1.00  0.00     0.047 A 
ATOM     33  C   UNL     1      31.298  -4.223  -6.764  1.00  0.00     0.047 A 
ATOM     34  C   UNL     1      30.722  -2.963  -6.599  1.00  0.00     0.115 A 
BRANCH  34  35
ATOM     35  O   UNL     1      31.514  -1.866  -6.457  1.00  0.00    -0.508 OA
ATOM     36  H   UNL     1      32.445  -2.138  -6.527  1.00  0.00     0.293 HD
ENDBRANCH  34  35
ENDBRANCH  10  29
TORSDOF 9
ENDMDL
MODEL 9
REMARK VINA RESULT:    -6.617      4.224      5.903
REMARK INTER + INTRA:          -9.693
REMARK INTER:                  -8.546
REMARK INTRA:                  -1.147
REMARK UNBOUND:                -0.755
REMARK SMILES O=c1c(-c2ccc(O)cc2)coc2c([C@@H]3O[C@H](CO)[C@@H](O)[C@H](O)[C@H]3O)c(O)ccc12
REMARK SMILES IDX 12 1 1 2 14 3 13 4 26 5 30 6 28 7 29 8 2 9 3 10 11 11 15 12
REMARK SMILES IDX 16 13 17 14 24 15 20 16 22 17 18 18 19 19 25 21 21 23 23 25
REMARK SMILES IDX 27 27 4 29 5 30 10 31 6 32 9 33 7 34 8 35
REMARK H PARENT 19 20 25 22 21 24 23 26 27 28 8 36
REMARK INDEX MAP 6 1 8 2 15 3 17 4 18 5 19 6 20 7 21 8 22 9 23 10 24 11 12 12
REMARK INDEX MAP 1 13 14 14 10 15 13 16 11 17 16 18 5 19 43 20 2 21 38 22 4 23
REMARK INDEX MAP 40 24 3 25 39 26 7 27 45 28 25 29 26 30 27 31 28 32 29 33
REMARK INDEX MAP 30 34 9 35 50 36
ROOT
ATOM      1  O   UNL     1      26.509  -8.323  -7.786  1.00  0.00    -0.463 OA
ATOM      2  O   UNL     1      29.378  -5.506  -8.488  1.00  0.00    -0.288 OA
ATOM      3  C   UNL     1      27.576  -9.002  -5.792  1.00  0.00     0.069 A 
ATOM      4  C   UNL     1      27.548  -8.162  -6.906  1.00  0.00     0.147 A 
ATOM      5  C   UNL     1      28.608  -8.885  -4.862  1.00  0.00     0.125 A 
ATOM      6  C   UNL     1      28.549  -7.210  -7.089  1.00  0.00     0.066 A 
ATOM      7  C   UNL     1      29.611  -7.933  -5.044  1.00  0.00     0.047 A 
ATOM      8  C   UNL     1      29.585  -7.092  -6.158  1.00  0.00     0.020 A 
ATOM      9  C   UNL     1      28.502  -6.335  -8.275  1.00  0.00     0.200 A 
ATOM     10  C   UNL     1      27.347  -6.530  -9.195  1.00  0.00     0.065 A 
ATOM     11  C   UNL     1      26.464  -7.488  -8.877  1.00  0.00     0.208 A 
ENDROOT
BRANCH   3  12
ATOM     12  C   UNL     1      26.491 -10.040  -5.586  1.00  0.00     0.188 C 
ATOM     13  O   UNL     1      26.106 -10.000  -4.208  1.00  0.00    -0.362 OA
ATOM     14  C   UNL     1      25.019 -10.876  -3.911  1.00  0.00     0.176 C 
ATOM     15  C   UNL     1      26.962 -11.449  -5.979  1.00  0.00     0.179 C 
ATOM     16  C   UNL     1      25.427 -12.327  -4.174  1.00  0.00     0.177 C 
ATOM     17  C   UNL     1      25.912 -12.501  -5.614  1.00  0.00     0.177 C 
BRANCH  14  18
ATOM     18  C   UNL     1      24.637 -10.653  -2.451  1.00  0.00     0.191 C 
BRANCH  18  19
ATOM     19  O   UNL     1      25.047 -11.782  -1.701  1.00  0.00    -0.394 OA
ATOM     20  H   UNL     1      25.873 -11.548  -1.245  1.00  0.00     0.210 HD
ENDBRANCH  18  19
ENDBRANCH  14  18
BRANCH  15  21
ATOM     21  O   UNL     1      27.179 -11.480  -7.390  1.00  0.00    -0.387 OA
ATOM     22  H   UNL     1      26.364 -11.178  -7.825  1.00  0.00     0.211 HD
ENDBRANCH  15  21
BRANCH  16  23
ATOM     23  O   UNL     1      24.309 -13.180  -3.948  1.00  0.00    -0.388 OA
ATOM     24  H   UNL     1      24.158 -13.698  -4.756  1.00  0.00     0.211 HD
ENDBRANCH  16  23
BRANCH  17  25
ATOM     25  O   UNL     1      26.483 -13.805  -5.732  1.00  0.00    -0.387 OA
ATOM     26  H   UNL     1      26.172 -14.182  -6.572  1.00  0.00     0.211 HD
ENDBRANCH  17  25
ENDBRANCH   3  12
BRANCH   5  27
ATOM     27  O   UNL     1      28.655  -9.695  -3.767  1.00  0.00    -0.507 OA
ATOM     28  H   UNL     1      28.705  -9.146  -2.966  1.00  0.00     0.293 HD
ENDBRANCH   5  27
BRANCH  10  29
ATOM     29  C   UNL     1      27.157  -5.698 -10.394  1.00  0.00    -0.011 A 
ATOM     30  C   UNL     1      27.653  -6.123 -11.628  1.00  0.00     0.013 A 
ATOM     31  C   UNL     1      26.479  -4.480 -10.302  1.00  0.00     0.013 A 
ATOM     32  C   UNL     1      27.473  -5.335 -12.765  1.00  0.00     0.047 A 
ATOM     33  C   UNL     1      26.298  -3.692 -11.438  1.00  0.00     0.047 A 
ATOM     34  C   UNL     1      26.795  -4.119 -12.670  1.00  0.00     0.115 A 
BRANCH  34  35
ATOM     35  O   UNL     1      26.620  -3.350 -13.779  1.00  0.00    -0.508 OA
ATOM     36  H   UNL     1      25.812  -3.638 -14.237  1.00  0.00     0.293 HD
ENDBRANCH  34  35
ENDBRANCH  10  29
TORSDOF 9
ENDMDL
MODEL 10
REMARK VINA RESULT:    -6.555      3.163      8.116
REMARK INTER + INTRA:          -9.609
REMARK INTER:                  -8.705
REMARK INTRA:                  -0.904
REMARK UNBOUND:                -0.755
REMARK SMILES O=c1c(-c2ccc(O)cc2)coc2c([C@@H]3O[C@H](CO)[C@@H](O)[C@H](O)[C@H]3O)c(O)ccc12
REMARK SMILES IDX 12 1 1 2 14 3 13 4 26 5 30 6 28 7 29 8 2 9 3 10 11 11 15 12
REMARK SMILES IDX 16 13 17 14 24 15 20 16 22 17 18 18 19 19 25 21 21 23 23 25
REMARK SMILES IDX 27 27 4 29 5 30 10 31 6 32 9 33 7 34 8 35
REMARK H PARENT 19 20 25 22 21 24 23 26 27 28 8 36
REMARK INDEX MAP 6 1 8 2 15 3 17 4 18 5 19 6 20 7 21 8 22 9 23 10 24 11 12 12
REMARK INDEX MAP 1 13 14 14 10 15 13 16 11 17 16 18 5 19 43 20 2 21 38 22 4 23
REMARK INDEX MAP 40 24 3 25 39 26 7 27 45 28 25 29 26 30 27 31 28 32 29 33
REMARK INDEX MAP 30 34 9 35 50 36
ROOT
ATOM      1  O   UNL     1      25.482  -9.368  -8.669  1.00  0.00    -0.463 OA
ATOM      2  O   UNL     1      28.539 -11.227  -6.707  1.00  0.00    -0.288 OA
ATOM      3  C   UNL     1      26.735  -9.281 -10.669  1.00  0.00     0.069 A 
ATOM      4  C   UNL     1      26.649  -9.659  -9.328  1.00  0.00     0.147 A 
ATOM      5  C   UNL     1      27.897  -9.549 -11.391  1.00  0.00     0.125 A 
ATOM      6  C   UNL     1      27.721 -10.301  -8.712  1.00  0.00     0.066 A 
ATOM      7  C   UNL     1      28.972 -10.192 -10.775  1.00  0.00     0.047 A 
ATOM      8  C   UNL     1      28.887 -10.570  -9.434  1.00  0.00     0.020 A 
ATOM      9  C   UNL     1      27.609 -10.688  -7.293  1.00  0.00     0.200 A 
ATOM     10  C   UNL     1      26.319 -10.372  -6.621  1.00  0.00     0.065 A 
ATOM     11  C   UNL     1      25.381  -9.751  -7.353  1.00  0.00     0.208 A 
ENDROOT
BRANCH   3  12
ATOM     12  C   UNL     1      25.573  -8.581 -11.345  1.00  0.00     0.188 C 
ATOM     13  O   UNL     1      25.514  -9.045 -12.698  1.00  0.00    -0.362 OA
ATOM     14  C   UNL     1      24.396  -8.522 -13.415  1.00  0.00     0.176 C 
ATOM     15  C   UNL     1      25.718  -7.052 -11.299  1.00  0.00     0.179 C 
ATOM     16  C   UNL     1      24.503  -6.999 -13.514  1.00  0.00     0.177 C 
ATOM     17  C   UNL     1      24.623  -6.372 -12.124  1.00  0.00     0.177 C 
BRANCH  14  18
ATOM     18  C   UNL     1      24.387  -9.178 -14.792  1.00  0.00     0.191 C 
BRANCH  18  19
ATOM     19  O   UNL     1      25.721  -9.491 -15.151  1.00  0.00    -0.394 OA
ATOM     20  H   UNL     1      26.288  -9.271 -14.393  1.00  0.00     0.210 HD
ENDBRANCH  18  19
ENDBRANCH  14  18
BRANCH  15  21
ATOM     21  O   UNL     1      25.609  -6.624  -9.941  1.00  0.00    -0.387 OA
ATOM     22  H   UNL     1      24.870  -5.995  -9.884  1.00  0.00     0.211 HD
ENDBRANCH  15  21
BRANCH  16  23
ATOM     23  O   UNL     1      23.343  -6.486 -14.162  1.00  0.00    -0.388 OA
ATOM     24  H   UNL     1      23.502  -5.549 -14.368  1.00  0.00     0.211 HD
ENDBRANCH  16  23
BRANCH  17  25
ATOM     25  O   UNL     1      24.941  -4.989 -12.290  1.00  0.00    -0.387 OA
ATOM     26  H   UNL     1      24.991  -4.595 -11.403  1.00  0.00     0.211 HD
ENDBRANCH  17  25
ENDBRANCH   3  12
BRANCH   5  27
ATOM     27  O   UNL     1      28.003  -9.190 -12.700  1.00  0.00    -0.507 OA
ATOM     28  H   UNL     1      27.188  -8.736 -12.973  1.00  0.00     0.293 HD
ENDBRANCH   5  27
BRANCH  10  29
ATOM     29  C   UNL     1      26.060 -10.737  -5.220  1.00  0.00    -0.011 A 
ATOM     30  C   UNL     1      25.185 -11.783  -4.917  1.00  0.00     0.013 A 
ATOM     31  C   UNL     1      26.690 -10.040  -4.186  1.00  0.00     0.013 A 
ATOM     32  C   UNL     1      24.940 -12.129  -3.589  1.00  0.00     0.047 A 
ATOM     33  C   UNL     1      26.445 -10.387  -2.857  1.00  0.00     0.047 A 
ATOM     34  C   UNL     1      25.570 -11.431  -2.558  1.00  0.00     0.115 A 
BRANCH  34  35
ATOM     35  O   UNL     1      25.330 -11.769  -1.262  1.00  0.00    -0.508 OA
ATOM     36  H   UNL     1      25.261 -12.737  -1.196  1.00  0.00     0.293 HD
ENDBRANCH  34  35
ENDBRANCH  10  29
TORSDOF 9
ENDMDL
MODEL 11
REMARK VINA RESULT:    -6.492      2.037      3.056
REMARK INTER + INTRA:          -9.524
REMARK INTER:                  -9.163
REMARK INTRA:                  -0.361
REMARK UNBOUND:                -0.755
REMARK SMILES O=c1c(-c2ccc(O)cc2)coc2c([C@@H]3O[C@H](CO)[C@@H](O)[C@H](O)[C@H]3O)c(O)ccc12
REMARK SMILES IDX 12 1 1 2 14 3 13 4 26 5 30 6 28 7 29 8 2 9 3 10 11 11 15 12
REMARK SMILES IDX 16 13 17 14 24 15 20 16 22 17 18 18 19 19 25 21 21 23 23 25
REMARK SMILES IDX 27 27 4 29 5 30 10 31 6 32 9 33 7 34 8 35
REMARK H PARENT 19 20 25 22 21 24 23 26 27 28 8 36
REMARK INDEX MAP 6 1 8 2 15 3 17 4 18 5 19 6 20 7 21 8 22 9 23 10 24 11 12 12
REMARK INDEX MAP 1 13 14 14 10 15 13 16 11 17 16 18 5 19 43 20 2 21 38 22 4 23
REMARK INDEX MAP 40 24 3 25 39 26 7 27 45 28 25 29 26 30 27 31 28 32 29 33
REMARK INDEX MAP 30 34 9 35 50 36
ROOT
ATOM      1  O   UNL     1      27.826 -10.428  -6.522  1.00  0.00    -0.463 OA
ATOM      2  O   UNL     1      30.041  -8.404  -9.288  1.00  0.00    -0.288 OA
ATOM      3  C   UNL     1      26.575  -8.490  -6.014  1.00  0.00     0.069 A 
ATOM      4  C   UNL     1      27.586  -9.099  -6.761  1.00  0.00     0.147 A 
ATOM      5  C   UNL     1      26.285  -7.140  -6.213  1.00  0.00     0.125 A 
ATOM      6  C   UNL     1      28.302  -8.361  -7.700  1.00  0.00     0.066 A 
ATOM      7  C   UNL     1      27.003  -6.400  -7.153  1.00  0.00     0.047 A 
ATOM      8  C   UNL     1      28.014  -7.008  -7.900  1.00  0.00     0.020 A 
ATOM      9  C   UNL     1      29.368  -9.024  -8.475  1.00  0.00     0.200 A 
ATOM     10  C   UNL     1      29.583 -10.471  -8.199  1.00  0.00     0.065 A 
ATOM     11  C   UNL     1      28.807 -11.040  -7.264  1.00  0.00     0.208 A 
ENDROOT
BRANCH   3  12
ATOM     12  C   UNL     1      25.791  -9.286  -4.990  1.00  0.00     0.188 C 
ATOM     13  O   UNL     1      26.703  -9.688  -3.962  1.00  0.00    -0.362 OA
ATOM     14  C   UNL     1      26.058 -10.371  -2.887  1.00  0.00     0.176 C 
ATOM     15  C   UNL     1      25.103 -10.508  -5.617  1.00  0.00     0.179 C 
ATOM     16  C   UNL     1      25.424 -11.668  -3.395  1.00  0.00     0.177 C 
ATOM     17  C   UNL     1      24.454 -11.384  -4.542  1.00  0.00     0.177 C 
BRANCH  14  18
ATOM     18  C   UNL     1      27.113 -10.640  -1.817  1.00  0.00     0.191 C 
BRANCH  18  19
ATOM     19  O   UNL     1      27.982  -9.524  -1.751  1.00  0.00    -0.394 OA
ATOM     20  H   UNL     1      27.576  -8.805  -2.264  1.00  0.00     0.210 HD
ENDBRANCH  18  19
ENDBRANCH  14  18
BRANCH  15  21
ATOM     21  O   UNL     1      24.092 -10.051  -6.516  1.00  0.00    -0.387 OA
ATOM     22  H   UNL     1      24.533  -9.709  -7.312  1.00  0.00     0.211 HD
ENDBRANCH  15  21
BRANCH  16  23
ATOM     23  O   UNL     1      24.720 -12.297  -2.329  1.00  0.00    -0.388 OA
ATOM     24  H   UNL     1      23.955 -11.741  -2.103  1.00  0.00     0.211 HD
ENDBRANCH  16  23
BRANCH  17  25
ATOM     25  O   UNL     1      24.070 -12.635  -5.115  1.00  0.00    -0.387 OA
ATOM     26  H   UNL     1      24.012 -13.280  -4.389  1.00  0.00     0.211 HD
ENDBRANCH  17  25
ENDBRANCH   3  12
BRANCH   5  27
ATOM     27  O   UNL     1      25.304  -6.526  -5.496  1.00  0.00    -0.507 OA
ATOM     28  H   UNL     1      24.976  -7.137  -4.814  1.00  0.00     0.293 HD
ENDBRANCH   5  27
BRANCH  10  29
ATOM     29  C   UNL     1      30.587 -11.263  -8.928  1.00  0.00    -0.011 A 
ATOM     30  C   UNL     1      31.873 -11.418  -8.406  1.00  0.00     0.013 A 
ATOM     31  C   UNL     1      30.256 -11.863 -10.146  1.00  0.00     0.013 A 
ATOM     32  C   UNL     1      32.823 -12.168  -9.098  1.00  0.00     0.047 A 
ATOM     33  C   UNL     1      31.207 -12.613 -10.837  1.00  0.00     0.047 A 
ATOM     34  C   UNL     1      32.490 -12.767 -10.314  1.00  0.00     0.115 A 
BRANCH  34  35
ATOM     35  O   UNL     1      33.418 -13.498 -10.989  1.00  0.00    -0.508 OA
ATOM     36  H   UNL     1      33.714 -12.992 -11.765  1.00  0.00     0.293 HD
ENDBRANCH  34  35
ENDBRANCH  10  29
TORSDOF 9
ENDMDL
MODEL 12
REMARK VINA RESULT:    -6.459      2.351      8.458
REMARK INTER + INTRA:          -9.479
REMARK INTER:                  -8.328
REMARK INTRA:                  -1.151
REMARK UNBOUND:                -0.755
REMARK SMILES O=c1c(-c2ccc(O)cc2)coc2c([C@@H]3O[C@H](CO)[C@@H](O)[C@H](O)[C@H]3O)c(O)ccc12
REMARK SMILES IDX 12 1 1 2 14 3 13 4 26 5 30 6 28 7 29 8 2 9 3 10 11 11 15 12
REMARK SMILES IDX 16 13 17 14 24 15 20 16 22 17 18 18 19 19 25 21 21 23 23 25
REMARK SMILES IDX 27 27 4 29 5 30 10 31 6 32 9 33 7 34 8 35
REMARK H PARENT 19 20 25 22 21 24 23 26 27 28 8 36
REMARK INDEX MAP 6 1 8 2 15 3 17 4 18 5 19 6 20 7 21 8 22 9 23 10 24 11 12 12
REMARK INDEX MAP 1 13 14 14 10 15 13 16 11 17 16 18 5 19 43 20 2 21 38 22 4 23
REMARK INDEX MAP 40 24 3 25 39 26 7 27 45 28 25 29 26 30 27 31 28 32 29 33
REMARK INDEX MAP 30 34 9 35 50 36
ROOT
ATOM      1  O   UNL     1      28.535 -11.063  -7.882  1.00  0.00    -0.463 OA
ATOM      2  O   UNL     1      27.852  -7.678  -5.708  1.00  0.00    -0.288 OA
ATOM      3  C   UNL     1      30.027  -9.919  -9.311  1.00  0.00     0.069 A 
ATOM      4  C   UNL     1      29.168  -9.892  -8.211  1.00  0.00     0.147 A 
ATOM      5  C   UNL     1      30.699  -8.759  -9.694  1.00  0.00     0.125 A 
ATOM      6  C   UNL     1      28.982  -8.709  -7.499  1.00  0.00     0.066 A 
ATOM      7  C   UNL     1      30.513  -7.574  -8.981  1.00  0.00     0.047 A 
ATOM      8  C   UNL     1      29.654  -7.545  -7.881  1.00  0.00     0.020 A 
ATOM      9  C   UNL     1      28.066  -8.703  -6.342  1.00  0.00     0.200 A 
ATOM     10  C   UNL     1      27.415  -9.999  -6.007  1.00  0.00     0.065 A 
ATOM     11  C   UNL     1      27.701 -11.051  -6.790  1.00  0.00     0.208 A 
ENDROOT
BRANCH   3  12
ATOM     12  C   UNL     1      30.235 -11.202 -10.091  1.00  0.00     0.188 C 
ATOM     13  O   UNL     1      31.640 -11.345 -10.326  1.00  0.00    -0.362 OA
ATOM     14  C   UNL     1      31.970 -12.572 -10.978  1.00  0.00     0.176 C 
ATOM     15  C   UNL     1      29.458 -11.200 -11.417  1.00  0.00     0.179 C 
ATOM     16  C   UNL     1      31.321 -12.621 -12.363  1.00  0.00     0.177 C 
ATOM     17  C   UNL     1      29.808 -12.429 -12.260  1.00  0.00     0.177 C 
BRANCH  14  18
ATOM     18  C   UNL     1      33.491 -12.650 -11.064  1.00  0.00     0.191 C 
BRANCH  18  19
ATOM     19  O   UNL     1      33.874 -14.013 -11.032  1.00  0.00    -0.394 OA
ATOM     20  H   UNL     1      34.688 -14.078 -10.503  1.00  0.00     0.210 HD
ENDBRANCH  18  19
ENDBRANCH  14  18
BRANCH  15  21
ATOM     21  O   UNL     1      28.060 -11.218 -11.127  1.00  0.00    -0.387 OA
ATOM     22  H   UNL     1      27.950 -11.499 -10.203  1.00  0.00     0.211 HD
ENDBRANCH  15  21
BRANCH  16  23
ATOM     23  O   UNL     1      31.596 -13.881 -12.967  1.00  0.00    -0.388 OA
ATOM     24  H   UNL     1      32.506 -13.860 -13.308  1.00  0.00     0.211 HD
ENDBRANCH  16  23
BRANCH  17  25
ATOM     25  O   UNL     1      29.294 -12.261 -13.582  1.00  0.00    -0.387 OA
ATOM     26  H   UNL     1      29.914 -11.685 -14.062  1.00  0.00     0.211 HD
ENDBRANCH  17  25
ENDBRANCH   3  12
BRANCH   5  27
ATOM     27  O   UNL     1      31.542  -8.762 -10.764  1.00  0.00    -0.507 OA
ATOM     28  H   UNL     1      31.610  -9.667 -11.114  1.00  0.00     0.293 HD
ENDBRANCH   5  27
BRANCH  10  29
ATOM     29  C   UNL     1      26.510 -10.142  -4.856  1.00  0.00    -0.011 A 
ATOM     30  C   UNL     1      27.016 -10.510  -3.607  1.00  0.00     0.013 A 
ATOM     31  C   UNL     1      25.141  -9.909  -5.007  1.00  0.00     0.013 A 
ATOM     32  C   UNL     1      26.158 -10.645  -2.516  1.00  0.00     0.047 A 
ATOM     33  C   UNL     1      24.283 -10.044  -3.915  1.00  0.00     0.047 A 
ATOM     34  C   UNL     1      24.791 -10.412  -2.670  1.00  0.00     0.115 A 
BRANCH  34  35
ATOM     35  O   UNL     1      23.954 -10.545  -1.605  1.00  0.00    -0.508 OA
ATOM     36  H   UNL     1      23.752 -11.488  -1.480  1.00  0.00     0.293 HD
ENDBRANCH  34  35
ENDBRANCH  10  29
TORSDOF 9
ENDMDL
MODEL 13
REMARK VINA RESULT:    -6.456      2.408      3.359
REMARK INTER + INTRA:          -9.475
REMARK INTER:                  -9.132
REMARK INTRA:                  -0.342
REMARK UNBOUND:                -0.755
REMARK SMILES O=c1c(-c2ccc(O)cc2)coc2c([C@@H]3O[C@H](CO)[C@@H](O)[C@H](O)[C@H]3O)c(O)ccc12
REMARK SMILES IDX 12 1 1 2 14 3 13 4 26 5 30 6 28 7 29 8 2 9 3 10 11 11 15 12
REMARK SMILES IDX 16 13 17 14 24 15 20 16 22 17 18 18 19 19 25 21 21 23 23 25
REMARK SMILES IDX 27 27 4 29 5 30 10 31 6 32 9 33 7 34 8 35
REMARK H PARENT 19 20 25 22 21 24 23 26 27 28 8 36
REMARK INDEX MAP 6 1 8 2 15 3 17 4 18 5 19 6 20 7 21 8 22 9 23 10 24 11 12 12
REMARK INDEX MAP 1 13 14 14 10 15 13 16 11 17 16 18 5 19 43 20 2 21 38 22 4 23
REMARK INDEX MAP 40 24 3 25 39 26 7 27 45 28 25 29 26 30 27 31 28 32 29 33
REMARK INDEX MAP 30 34 9 35 50 36
ROOT
ATOM      1  O   UNL     1      28.456  -9.692  -6.499  1.00  0.00    -0.463 OA
ATOM      2  O   UNL     1      30.998  -6.691  -7.586  1.00  0.00    -0.288 OA
ATOM      3  C   UNL     1      26.850  -8.140  -5.734  1.00  0.00     0.069 A 
ATOM      4  C   UNL     1      28.096  -8.383  -6.313  1.00  0.00     0.147 A 
ATOM      5  C   UNL     1      26.429  -6.828  -5.519  1.00  0.00     0.125 A 
ATOM      6  C   UNL     1      28.919  -7.317  -6.675  1.00  0.00     0.066 A 
ATOM      7  C   UNL     1      27.253  -5.760  -5.880  1.00  0.00     0.047 A 
ATOM      8  C   UNL     1      28.499  -6.001  -6.459  1.00  0.00     0.020 A 
ATOM      9  C   UNL     1      30.233  -7.597  -7.282  1.00  0.00     0.200 A 
ATOM     10  C   UNL     1      30.576  -9.032  -7.484  1.00  0.00     0.065 A 
ATOM     11  C   UNL     1      29.674  -9.941  -7.085  1.00  0.00     0.208 A 
ENDROOT
BRANCH   3  12
ATOM     12  C   UNL     1      25.950  -9.293  -5.337  1.00  0.00     0.188 C 
ATOM     13  O   UNL     1      26.377  -9.755  -4.050  1.00  0.00    -0.362 OA
ATOM     14  C   UNL     1      25.541 -10.787  -3.528  1.00  0.00     0.176 C 
ATOM     15  C   UNL     1      25.990 -10.433  -6.366  1.00  0.00     0.179 C 
ATOM     16  C   UNL     1      25.595 -12.016  -4.437  1.00  0.00     0.177 C 
ATOM     17  C   UNL     1      25.204 -11.650  -5.869  1.00  0.00     0.177 C 
BRANCH  14  18
ATOM     18  C   UNL     1      26.033 -11.105  -2.119  1.00  0.00     0.191 C 
BRANCH  18  19
ATOM     19  O   UNL     1      24.954 -11.643  -1.376  1.00  0.00    -0.394 OA
ATOM     20  H   UNL     1      24.912 -11.165  -0.530  1.00  0.00     0.210 HD
ENDBRANCH  18  19
ENDBRANCH  14  18
BRANCH  15  21
ATOM     21  O   UNL     1      25.406  -9.969  -7.584  1.00  0.00    -0.387 OA
ATOM     22  H   UNL     1      24.473  -9.762  -7.408  1.00  0.00     0.211 HD
ENDBRANCH  15  21
BRANCH  16  23
ATOM     23  O   UNL     1      24.697 -13.007  -3.944  1.00  0.00    -0.388 OA
ATOM     24  H   UNL     1      24.882 -13.136  -2.998  1.00  0.00     0.211 HD
ENDBRANCH  16  23
BRANCH  17  25
ATOM     25  O   UNL     1      25.488 -12.773  -6.705  1.00  0.00    -0.387 OA
ATOM     26  H   UNL     1      26.288 -12.559  -7.215  1.00  0.00     0.211 HD
ENDBRANCH  17  25
ENDBRANCH   3  12
BRANCH   5  27
ATOM     27  O   UNL     1      25.217  -6.568  -4.955  1.00  0.00    -0.507 OA
ATOM     28  H   UNL     1      24.945  -7.330  -4.417  1.00  0.00     0.293 HD
ENDBRANCH   5  27
BRANCH  10  29
ATOM     29  C   UNL     1      31.838  -9.450  -8.115  1.00  0.00    -0.011 A 
ATOM     30  C   UNL     1      31.851  -9.874  -9.445  1.00  0.00     0.013 A 
ATOM     31  C   UNL     1      33.029  -9.424  -7.384  1.00  0.00     0.013 A 
ATOM     32  C   UNL     1      33.048 -10.270 -10.043  1.00  0.00     0.047 A 
ATOM     33  C   UNL     1      34.225  -9.820  -7.982  1.00  0.00     0.047 A 
ATOM     34  C   UNL     1      34.235 -10.243  -9.311  1.00  0.00     0.115 A 
BRANCH  34  35
ATOM     35  O   UNL     1      35.402 -10.630  -9.894  1.00  0.00    -0.508 OA
ATOM     36  H   UNL     1      35.229 -10.862 -10.822  1.00  0.00     0.293 HD
ENDBRANCH  34  35
ENDBRANCH  10  29
TORSDOF 9
ENDMDL
MODEL 14
REMARK VINA RESULT:    -6.319      2.019      2.521
REMARK INTER + INTRA:          -9.290
REMARK INTER:                  -8.210
REMARK INTRA:                  -1.080
REMARK UNBOUND:                -0.755
REMARK SMILES O=c1c(-c2ccc(O)cc2)coc2c([C@@H]3O[C@H](CO)[C@@H](O)[C@H](O)[C@H]3O)c(O)ccc12
REMARK SMILES IDX 12 1 1 2 14 3 13 4 26 5 30 6 28 7 29 8 2 9 3 10 11 11 15 12
REMARK SMILES IDX 16 13 17 14 24 15 20 16 22 17 18 18 19 19 25 21 21 23 23 25
REMARK SMILES IDX 27 27 4 29 5 30 10 31 6 32 9 33 7 34 8 35
REMARK H PARENT 19 20 25 22 21 24 23 26 27 28 8 36
REMARK INDEX MAP 6 1 8 2 15 3 17 4 18 5 19 6 20 7 21 8 22 9 23 10 24 11 12 12
REMARK INDEX MAP 1 13 14 14 10 15 13 16 11 17 16 18 5 19 43 20 2 21 38 22 4 23
REMARK INDEX MAP 40 24 3 25 39 26 7 27 45 28 25 29 26 30 27 31 28 32 29 33
REMARK INDEX MAP 30 34 9 35 50 36
ROOT
ATOM      1  O   UNL     1      29.110 -11.012  -8.030  1.00  0.00    -0.463 OA
ATOM      2  O   UNL     1      29.467  -9.188 -11.662  1.00  0.00    -0.288 OA
ATOM      3  C   UNL     1      27.537  -9.405  -7.308  1.00  0.00     0.069 A 
ATOM      4  C   UNL     1      28.379  -9.887  -8.312  1.00  0.00     0.147 A 
ATOM      5  C   UNL     1      26.770  -8.264  -7.535  1.00  0.00     0.125 A 
ATOM      6  C   UNL     1      28.452  -9.229  -9.538  1.00  0.00     0.066 A 
ATOM      7  C   UNL     1      26.843  -7.604  -8.763  1.00  0.00     0.047 A 
ATOM      8  C   UNL     1      27.684  -8.084  -9.768  1.00  0.00     0.020 A 
ATOM      9  C   UNL     1      29.351  -9.753 -10.583  1.00  0.00     0.200 A 
ATOM     10  C   UNL     1      30.111 -10.987 -10.243  1.00  0.00     0.065 A 
ATOM     11  C   UNL     1      29.928 -11.504  -9.019  1.00  0.00     0.208 A 
ENDROOT
BRANCH   3  12
ATOM     12  C   UNL     1      27.453 -10.116  -5.971  1.00  0.00     0.188 C 
ATOM     13  O   UNL     1      26.100 -10.016  -5.511  1.00  0.00    -0.362 OA
ATOM     14  C   UNL     1      25.875 -10.732  -4.297  1.00  0.00     0.176 C 
ATOM     15  C   UNL     1      28.424  -9.519  -4.941  1.00  0.00     0.179 C 
ATOM     16  C   UNL     1      26.729 -10.141  -3.173  1.00  0.00     0.177 C 
ATOM     17  C   UNL     1      28.208 -10.141  -3.559  1.00  0.00     0.177 C 
BRANCH  14  18
ATOM     18  C   UNL     1      24.385 -10.641  -3.981  1.00  0.00     0.191 C 
BRANCH  18  19
ATOM     19  O   UNL     1      24.164  -9.495  -3.178  1.00  0.00    -0.394 OA
ATOM     20  H   UNL     1      24.161  -8.720  -3.766  1.00  0.00     0.210 HD
ENDBRANCH  18  19
ENDBRANCH  14  18
BRANCH  15  21
ATOM     21  O   UNL     1      29.761  -9.786  -5.366  1.00  0.00    -0.387 OA
ATOM     22  H   UNL     1      30.024  -9.082  -5.983  1.00  0.00     0.211 HD
ENDBRANCH  15  21
BRANCH  16  23
ATOM     23  O   UNL     1      26.551 -10.913  -1.990  1.00  0.00    -0.388 OA
ATOM     24  H   UNL     1      25.602 -10.923  -1.776  1.00  0.00     0.211 HD
ENDBRANCH  16  23
BRANCH  17  25
ATOM     25  O   UNL     1      28.919  -9.382  -2.580  1.00  0.00    -0.387 OA
ATOM     26  H   UNL     1      28.910  -8.454  -2.870  1.00  0.00     0.211 HD
ENDBRANCH  17  25
ENDBRANCH   3  12
BRANCH   5  27
ATOM     27  O   UNL     1      25.942  -7.777  -6.570  1.00  0.00    -0.507 OA
ATOM     28  H   UNL     1      25.844  -8.442  -5.868  1.00  0.00     0.293 HD
ENDBRANCH   5  27
BRANCH  10  29
ATOM     29  C   UNL     1      31.013 -11.638 -11.207  1.00  0.00    -0.011 A 
ATOM     30  C   UNL     1      30.558 -12.707 -11.982  1.00  0.00     0.013 A 
ATOM     31  C   UNL     1      32.327 -11.187 -11.351  1.00  0.00     0.013 A 
ATOM     32  C   UNL     1      31.413 -13.323 -12.896  1.00  0.00     0.047 A 
ATOM     33  C   UNL     1      33.182 -11.803 -12.266  1.00  0.00     0.047 A 
ATOM     34  C   UNL     1      32.725 -12.871 -13.038  1.00  0.00     0.115 A 
BRANCH  34  35
ATOM     35  O   UNL     1      33.559 -13.472 -13.929  1.00  0.00    -0.508 OA
ATOM     36  H   UNL     1      34.184 -12.811 -14.272  1.00  0.00     0.293 HD
ENDBRANCH  34  35
ENDBRANCH  10  29
TORSDOF 9
ENDMDL
MODEL 15
REMARK VINA RESULT:    -6.290      2.423      4.043
REMARK INTER + INTRA:          -9.251
REMARK INTER:                  -8.114
REMARK INTRA:                  -1.137
REMARK UNBOUND:                -0.755
REMARK SMILES O=c1c(-c2ccc(O)cc2)coc2c([C@@H]3O[C@H](CO)[C@@H](O)[C@H](O)[C@H]3O)c(O)ccc12
REMARK SMILES IDX 12 1 1 2 14 3 13 4 26 5 30 6 28 7 29 8 2 9 3 10 11 11 15 12
REMARK SMILES IDX 16 13 17 14 24 15 20 16 22 17 18 18 19 19 25 21 21 23 23 25
REMARK SMILES IDX 27 27 4 29 5 30 10 31 6 32 9 33 7 34 8 35
REMARK H PARENT 19 20 25 22 21 24 23 26 27 28 8 36
REMARK INDEX MAP 6 1 8 2 15 3 17 4 18 5 19 6 20 7 21 8 22 9 23 10 24 11 12 12
REMARK INDEX MAP 1 13 14 14 10 15 13 16 11 17 16 18 5 19 43 20 2 21 38 22 4 23
REMARK INDEX MAP 40 24 3 25 39 26 7 27 45 28 25 29 26 30 27 31 28 32 29 33
REMARK INDEX MAP 30 34 9 35 50 36
ROOT
ATOM      1  O   UNL     1      27.650 -10.315  -8.637  1.00  0.00    -0.463 OA
ATOM      2  O   UNL     1      31.549 -10.009  -9.803  1.00  0.00    -0.288 OA
ATOM      3  C   UNL     1      28.135  -9.340  -6.542  1.00  0.00     0.069 A 
ATOM      4  C   UNL     1      28.581  -9.765  -7.794  1.00  0.00     0.147 A 
ATOM      5  C   UNL     1      29.036  -8.773  -5.641  1.00  0.00     0.125 A 
ATOM      6  C   UNL     1      29.923  -9.626  -8.142  1.00  0.00     0.066 A 
ATOM      7  C   UNL     1      30.380  -8.634  -5.989  1.00  0.00     0.047 A 
ATOM      8  C   UNL     1      30.828  -9.059  -7.240  1.00  0.00     0.020 A 
ATOM      9  C   UNL     1      30.373 -10.086  -9.469  1.00  0.00     0.200 A 
ATOM     10  C   UNL     1      29.327 -10.658 -10.361  1.00  0.00     0.065 A 
ATOM     11  C   UNL     1      28.076 -10.721  -9.879  1.00  0.00     0.208 A 
ENDROOT
BRANCH   3  12
ATOM     12  C   UNL     1      26.677  -9.488  -6.155  1.00  0.00     0.188 C 
ATOM     13  O   UNL     1      26.268  -8.270  -5.524  1.00  0.00    -0.362 OA
ATOM     14  C   UNL     1      24.879  -8.256  -5.195  1.00  0.00     0.176 C 
ATOM     15  C   UNL     1      26.449 -10.689  -5.224  1.00  0.00     0.179 C 
ATOM     16  C   UNL     1      24.568  -9.361  -4.183  1.00  0.00     0.177 C 
ATOM     17  C   UNL     1      25.004 -10.725  -4.718  1.00  0.00     0.177 C 
BRANCH  14  18
ATOM     18  C   UNL     1      24.553  -6.873  -4.639  1.00  0.00     0.191 C 
BRANCH  18  19
ATOM     19  O   UNL     1      23.146  -6.720  -4.609  1.00  0.00    -0.394 OA
ATOM     20  H   UNL     1      22.801  -6.998  -5.475  1.00  0.00     0.210 HD
ENDBRANCH  18  19
ENDBRANCH  14  18
BRANCH  15  21
ATOM     21  O   UNL     1      26.717 -11.888  -5.951  1.00  0.00    -0.387 OA
ATOM     22  H   UNL     1      25.883 -12.382  -6.031  1.00  0.00     0.211 HD
ENDBRANCH  15  21
BRANCH  16  23
ATOM     23  O   UNL     1      23.167  -9.383  -3.926  1.00  0.00    -0.388 OA
ATOM     24  H   UNL     1      22.703  -9.239  -4.769  1.00  0.00     0.211 HD
ENDBRANCH  16  23
BRANCH  17  25
ATOM     25  O   UNL     1      24.897 -11.671  -3.653  1.00  0.00    -0.387 OA
ATOM     26  H   UNL     1      24.383 -11.250  -2.943  1.00  0.00     0.211 HD
ENDBRANCH  17  25
ENDBRANCH   3  12
BRANCH   5  27
ATOM     27  O   UNL     1      28.622  -8.351  -4.414  1.00  0.00    -0.507 OA
ATOM     28  H   UNL     1      29.395  -8.248  -3.834  1.00  0.00     0.293 HD
ENDBRANCH   5  27
BRANCH  10  29
ATOM     29  C   UNL     1      29.632 -11.119 -11.724  1.00  0.00    -0.011 A 
ATOM     30  C   UNL     1      30.004 -12.446 -11.950  1.00  0.00     0.013 A 
ATOM     31  C   UNL     1      29.550 -10.230 -12.799  1.00  0.00     0.013 A 
ATOM     32  C   UNL     1      30.293 -12.883 -13.243  1.00  0.00     0.047 A 
ATOM     33  C   UNL     1      29.839 -10.667 -14.092  1.00  0.00     0.047 A 
ATOM     34  C   UNL     1      30.211 -11.993 -14.314  1.00  0.00     0.115 A 
BRANCH  34  35
ATOM     35  O   UNL     1      30.494 -12.419 -15.575  1.00  0.00    -0.508 OA
ATOM     36  H   UNL     1      29.770 -12.152 -16.168  1.00  0.00     0.293 HD
ENDBRANCH  34  35
ENDBRANCH  10  29
TORSDOF 9
ENDMDL
MODEL 16
REMARK VINA RESULT:    -6.288      3.370      3.811
REMARK INTER + INTRA:          -9.248
REMARK INTER:                  -8.245
REMARK INTRA:                  -1.003
REMARK UNBOUND:                -0.755
REMARK SMILES O=c1c(-c2ccc(O)cc2)coc2c([C@@H]3O[C@H](CO)[C@@H](O)[C@H](O)[C@H]3O)c(O)ccc12
REMARK SMILES IDX 12 1 1 2 14 3 13 4 26 5 30 6 28 7 29 8 2 9 3 10 11 11 15 12
REMARK SMILES IDX 16 13 17 14 24 15 20 16 22 17 18 18 19 19 25 21 21 23 23 25
REMARK SMILES IDX 27 27 4 29 5 30 10 31 6 32 9 33 7 34 8 35
REMARK H PARENT 19 20 25 22 21 24 23 26 27 28 8 36
REMARK INDEX MAP 6 1 8 2 15 3 17 4 18 5 19 6 20 7 21 8 22 9 23 10 24 11 12 12
REMARK INDEX MAP 1 13 14 14 10 15 13 16 11 17 16 18 5 19 43 20 2 21 38 22 4 23
REMARK INDEX MAP 40 24 3 25 39 26 7 27 45 28 25 29 26 30 27 31 28 32 29 33
REMARK INDEX MAP 30 34 9 35 50 36
ROOT
ATOM      1  O   UNL     1      28.620  -8.358  -6.510  1.00  0.00    -0.463 OA
ATOM      2  O   UNL     1      29.145  -6.406 -10.055  1.00  0.00    -0.288 OA
ATOM      3  C   UNL     1      26.635  -9.372  -7.290  1.00  0.00     0.069 A 
ATOM      4  C   UNL     1      27.720  -8.527  -7.530  1.00  0.00     0.147 A 
ATOM      5  C   UNL     1      25.686  -9.582  -8.290  1.00  0.00     0.125 A 
ATOM      6  C   UNL     1      27.854  -7.895  -8.765  1.00  0.00     0.066 A 
ATOM      7  C   UNL     1      25.819  -8.949  -9.527  1.00  0.00     0.047 A 
ATOM      8  C   UNL     1      26.903  -8.104  -9.768  1.00  0.00     0.020 A 
ATOM      9  C   UNL     1      29.006  -7.004  -8.995  1.00  0.00     0.200 A 
ATOM     10  C   UNL     1      29.970  -6.864  -7.869  1.00  0.00     0.065 A 
ATOM     11  C   UNL     1      29.701  -7.542  -6.743  1.00  0.00     0.208 A 
ENDROOT
BRANCH   3  12
ATOM     12  C   UNL     1      26.482 -10.062  -5.950  1.00  0.00     0.188 C 
ATOM     13  O   UNL     1      25.982 -11.381  -6.195  1.00  0.00    -0.362 OA
ATOM     14  C   UNL     1      25.883 -12.166  -5.006  1.00  0.00     0.176 C 
ATOM     15  C   UNL     1      25.543  -9.290  -5.009  1.00  0.00     0.179 C 
ATOM     16  C   UNL     1      24.884 -11.528  -4.039  1.00  0.00     0.177 C 
ATOM     17  C   UNL     1      25.276 -10.083  -3.727  1.00  0.00     0.177 C 
BRANCH  14  18
ATOM     18  C   UNL     1      25.452 -13.570  -5.418  1.00  0.00     0.191 C 
BRANCH  18  19
ATOM     19  O   UNL     1      25.517 -14.412  -4.282  1.00  0.00    -0.394 OA
ATOM     20  H   UNL     1      25.310 -15.316  -4.574  1.00  0.00     0.210 HD
ENDBRANCH  18  19
ENDBRANCH  14  18
BRANCH  15  21
ATOM     21  O   UNL     1      26.161  -8.049  -4.667  1.00  0.00    -0.387 OA
ATOM     22  H   UNL     1      25.713  -7.700  -3.878  1.00  0.00     0.211 HD
ENDBRANCH  15  21
BRANCH  16  23
ATOM     23  O   UNL     1      24.855 -12.278  -2.829  1.00  0.00    -0.388 OA
ATOM     24  H   UNL     1      24.623 -11.672  -2.104  1.00  0.00     0.211 HD
ENDBRANCH  16  23
BRANCH  17  25
ATOM     25  O   UNL     1      24.199  -9.479  -3.010  1.00  0.00    -0.387 OA
ATOM     26  H   UNL     1      23.863 -10.140  -2.381  1.00  0.00     0.211 HD
ENDBRANCH  17  25
ENDBRANCH   3  12
BRANCH   5  27
ATOM     27  O   UNL     1      24.619 -10.402  -8.078  1.00  0.00    -0.507 OA
ATOM     28  H   UNL     1      23.828 -10.006  -8.480  1.00  0.00     0.293 HD
ENDBRANCH   5  27
BRANCH  10  29
ATOM     29  C   UNL     1      31.182  -6.038  -7.979  1.00  0.00    -0.011 A 
ATOM     30  C   UNL     1      32.274  -6.490  -8.722  1.00  0.00     0.013 A 
ATOM     31  C   UNL     1      31.245  -4.797  -7.339  1.00  0.00     0.013 A 
ATOM     32  C   UNL     1      33.424  -5.706  -8.826  1.00  0.00     0.047 A 
ATOM     33  C   UNL     1      32.394  -4.014  -7.443  1.00  0.00     0.047 A 
ATOM     34  C   UNL     1      33.484  -4.467  -8.187  1.00  0.00     0.115 A 
BRANCH  34  35
ATOM     35  O   UNL     1      34.605  -3.703  -8.287  1.00  0.00    -0.508 OA
ATOM     36  H   UNL     1      35.296  -4.082  -7.717  1.00  0.00     0.293 HD
ENDBRANCH  34  35
ENDBRANCH  10  29
TORSDOF 9
ENDMDL
MODEL 17
REMARK VINA RESULT:    -6.230      1.574      8.648
REMARK INTER + INTRA:          -9.170
REMARK INTER:                  -8.152
REMARK INTRA:                  -1.018
REMARK UNBOUND:                -0.755
REMARK SMILES O=c1c(-c2ccc(O)cc2)coc2c([C@@H]3O[C@H](CO)[C@@H](O)[C@H](O)[C@H]3O)c(O)ccc12
REMARK SMILES IDX 12 1 1 2 14 3 13 4 26 5 30 6 28 7 29 8 2 9 3 10 11 11 15 12
REMARK SMILES IDX 16 13 17 14 24 15 20 16 22 17 18 18 19 19 25 21 21 23 23 25
REMARK SMILES IDX 27 27 4 29 5 30 10 31 6 32 9 33 7 34 8 35
REMARK H PARENT 19 20 25 22 21 24 23 26 27 28 8 36
REMARK INDEX MAP 6 1 8 2 15 3 17 4 18 5 19 6 20 7 21 8 22 9 23 10 24 11 12 12
REMARK INDEX MAP 1 13 14 14 10 15 13 16 11 17 16 18 5 19 43 20 2 21 38 22 4 23
REMARK INDEX MAP 40 24 3 25 39 26 7 27 45 28 25 29 26 30 27 31 28 32 29 33
REMARK INDEX MAP 30 34 9 35 50 36
ROOT
ATOM      1  O   UNL     1      29.844 -11.026  -7.460  1.00  0.00    -0.463 OA
ATOM      2  O   UNL     1      25.813 -10.505  -7.824  1.00  0.00    -0.288 OA
ATOM      3  C   UNL     1      30.179 -10.517  -9.742  1.00  0.00     0.069 A 
ATOM      4  C   UNL     1      29.300 -10.672  -8.668  1.00  0.00     0.147 A 
ATOM      5  C   UNL     1      29.685 -10.158 -10.995  1.00  0.00     0.125 A 
ATOM      6  C   UNL     1      27.933 -10.470  -8.848  1.00  0.00     0.066 A 
ATOM      7  C   UNL     1      28.316  -9.956 -11.176  1.00  0.00     0.047 A 
ATOM      8  C   UNL     1      27.436 -10.111 -10.104  1.00  0.00     0.020 A 
ATOM      9  C   UNL     1      27.023 -10.643  -7.701  1.00  0.00     0.200 A 
ATOM     10  C   UNL     1      27.656 -11.009  -6.404  1.00  0.00     0.065 A 
ATOM     11  C   UNL     1      28.989 -11.164  -6.393  1.00  0.00     0.208 A 
ENDROOT
BRANCH   3  12
ATOM     12  C   UNL     1      31.667 -10.735  -9.553  1.00  0.00     0.188 C 
ATOM     13  O   UNL     1      32.352  -9.702 -10.270  1.00  0.00    -0.362 OA
ATOM     14  C   UNL     1      33.767  -9.749 -10.090  1.00  0.00     0.176 C 
ATOM     15  C   UNL     1      32.110 -12.123 -10.041  1.00  0.00     0.179 C 
ATOM     16  C   UNL     1      34.323 -11.063 -10.645  1.00  0.00     0.177 C 
ATOM     17  C   UNL     1      33.634 -12.262  -9.992  1.00  0.00     0.177 C 
BRANCH  14  18
ATOM     18  C   UNL     1      34.361  -8.539 -10.806  1.00  0.00     0.191 C 
BRANCH  18  19
ATOM     19  O   UNL     1      35.482  -8.086 -10.069  1.00  0.00    -0.394 OA
ATOM     20  H   UNL     1      36.264  -8.557 -10.404  1.00  0.00     0.210 HD
ENDBRANCH  18  19
ENDBRANCH  14  18
BRANCH  15  21
ATOM     21  O   UNL     1      31.526 -13.113  -9.194  1.00  0.00    -0.387 OA
ATOM     22  H   UNL     1      30.663 -13.356  -9.568  1.00  0.00     0.211 HD
ENDBRANCH  15  21
BRANCH  16  23
ATOM     23  O   UNL     1      35.722 -11.128 -10.389  1.00  0.00    -0.388 OA
ATOM     24  H   UNL     1      36.064 -10.218 -10.349  1.00  0.00     0.211 HD
ENDBRANCH  16  23
BRANCH  17  25
ATOM     25  O   UNL     1      34.028 -13.437 -10.702  1.00  0.00    -0.387 OA
ATOM     26  H   UNL     1      34.025 -14.173 -10.067  1.00  0.00     0.211 HD
ENDBRANCH  17  25
ENDBRANCH   3  12
BRANCH   5  27
ATOM     27  O   UNL     1      30.523 -10.001 -12.056  1.00  0.00    -0.507 OA
ATOM     28  H   UNL     1      31.409 -10.320 -11.813  1.00  0.00     0.293 HD
ENDBRANCH   5  27
BRANCH  10  29
ATOM     29  C   UNL     1      26.869 -11.174  -5.172  1.00  0.00    -0.011 A 
ATOM     30  C   UNL     1      27.036 -10.285  -4.108  1.00  0.00     0.013 A 
ATOM     31  C   UNL     1      25.951 -12.221  -5.062  1.00  0.00     0.013 A 
ATOM     32  C   UNL     1      26.289 -10.442  -2.940  1.00  0.00     0.047 A 
ATOM     33  C   UNL     1      25.205 -12.378  -3.894  1.00  0.00     0.047 A 
ATOM     34  C   UNL     1      25.373 -11.489  -2.833  1.00  0.00     0.115 A 
BRANCH  34  35
ATOM     35  O   UNL     1      24.646 -11.642  -1.693  1.00  0.00    -0.508 OA
ATOM     36  H   UNL     1      23.982 -10.933  -1.646  1.00  0.00     0.293 HD
ENDBRANCH  34  35
ENDBRANCH  10  29
TORSDOF 9
ENDMDL
MODEL 18
REMARK VINA RESULT:    -6.175      5.105      8.507
REMARK INTER + INTRA:          -9.096
REMARK INTER:                  -7.950
REMARK INTRA:                  -1.145
REMARK UNBOUND:                -0.755
REMARK SMILES O=c1c(-c2ccc(O)cc2)coc2c([C@@H]3O[C@H](CO)[C@@H](O)[C@H](O)[C@H]3O)c(O)ccc12
REMARK SMILES IDX 12 1 1 2 14 3 13 4 26 5 30 6 28 7 29 8 2 9 3 10 11 11 15 12
REMARK SMILES IDX 16 13 17 14 24 15 20 16 22 17 18 18 19 19 25 21 21 23 23 25
REMARK SMILES IDX 27 27 4 29 5 30 10 31 6 32 9 33 7 34 8 35
REMARK H PARENT 19 20 25 22 21 24 23 26 27 28 8 36
REMARK INDEX MAP 6 1 8 2 15 3 17 4 18 5 19 6 20 7 21 8 22 9 23 10 24 11 12 12
REMARK INDEX MAP 1 13 14 14 10 15 13 16 11 17 16 18 5 19 43 20 2 21 38 22 4 23
REMARK INDEX MAP 40 24 3 25 39 26 7 27 45 28 25 29 26 30 27 31 28 32 29 33
REMARK INDEX MAP 30 34 9 35 50 36
ROOT
ATOM      1  O   UNL     1      29.253  -8.695  -4.622  1.00  0.00    -0.463 OA
ATOM      2  O   UNL     1      25.953  -9.031  -6.998  1.00  0.00    -0.288 OA
ATOM      3  C   UNL     1      29.747  -6.560  -5.502  1.00  0.00     0.069 A 
ATOM      4  C   UNL     1      28.914  -7.680  -5.479  1.00  0.00     0.147 A 
ATOM      5  C   UNL     1      29.453  -5.496  -6.353  1.00  0.00     0.125 A 
ATOM      6  C   UNL     1      27.794  -7.735  -6.305  1.00  0.00     0.066 A 
ATOM      7  C   UNL     1      28.331  -5.550  -7.181  1.00  0.00     0.047 A 
ATOM      8  C   UNL     1      27.498  -6.669  -7.160  1.00  0.00     0.020 A 
ATOM      9  C   UNL     1      26.930  -8.930  -6.267  1.00  0.00     0.200 A 
ATOM     10  C   UNL     1      27.323 -10.000  -5.310  1.00  0.00     0.065 A 
ATOM     11  C   UNL     1      28.430  -9.795  -4.580  1.00  0.00     0.208 A 
ENDROOT
BRANCH   3  12
ATOM     12  C   UNL     1      30.968  -6.493  -4.606  1.00  0.00     0.188 C 
ATOM     13  O   UNL     1      31.044  -5.167  -4.073  1.00  0.00    -0.362 OA
ATOM     14  C   UNL     1      32.109  -5.007  -3.136  1.00  0.00     0.176 C 
ATOM     15  C   UNL     1      32.256  -6.851  -5.364  1.00  0.00     0.179 C 
ATOM     16  C   UNL     1      33.454  -5.243  -3.826  1.00  0.00     0.177 C 
ATOM     17  C   UNL     1      33.490  -6.621  -4.487  1.00  0.00     0.177 C 
BRANCH  14  18
ATOM     18  C   UNL     1      32.008  -3.596  -2.564  1.00  0.00     0.191 C 
BRANCH  18  19
ATOM     19  O   UNL     1      32.502  -3.612  -1.237  1.00  0.00    -0.394 OA
ATOM     20  H   UNL     1      31.789  -3.299  -0.654  1.00  0.00     0.210 HD
ENDBRANCH  18  19
ENDBRANCH  14  18
BRANCH  15  21
ATOM     21  O   UNL     1      32.200  -8.229  -5.735  1.00  0.00    -0.387 OA
ATOM     22  H   UNL     1      33.047  -8.638  -5.492  1.00  0.00     0.211 HD
ENDBRANCH  15  21
BRANCH  16  23
ATOM     23  O   UNL     1      34.500  -5.157  -2.862  1.00  0.00    -0.388 OA
ATOM     24  H   UNL     1      34.895  -4.270  -2.926  1.00  0.00     0.211 HD
ENDBRANCH  16  23
BRANCH  17  25
ATOM     25  O   UNL     1      34.667  -6.692  -5.294  1.00  0.00    -0.387 OA
ATOM     26  H   UNL     1      35.406  -6.355  -4.759  1.00  0.00     0.211 HD
ENDBRANCH  17  25
ENDBRANCH   3  12
BRANCH   5  27
ATOM     27  O   UNL     1      30.252  -4.393  -6.391  1.00  0.00    -0.507 OA
ATOM     28  H   UNL     1      31.148  -4.657  -6.657  1.00  0.00     0.293 HD
ENDBRANCH   5  27
BRANCH  10  29
ATOM     29  C   UNL     1      26.528 -11.227  -5.143  1.00  0.00    -0.011 A 
ATOM     30  C   UNL     1      26.733 -12.317  -5.992  1.00  0.00     0.013 A 
ATOM     31  C   UNL     1      25.565 -11.306  -4.134  1.00  0.00     0.013 A 
ATOM     32  C   UNL     1      25.980 -13.480  -5.833  1.00  0.00     0.047 A 
ATOM     33  C   UNL     1      24.812 -12.469  -3.975  1.00  0.00     0.047 A 
ATOM     34  C   UNL     1      25.019 -13.556  -4.824  1.00  0.00     0.115 A 
BRANCH  34  35
ATOM     35  O   UNL     1      24.283 -14.691  -4.671  1.00  0.00    -0.508 OA
ATOM     36  H   UNL     1      24.885 -15.437  -4.510  1.00  0.00     0.293 HD
ENDBRANCH  34  35
ENDBRANCH  10  29
TORSDOF 9
ENDMDL
MODEL 19
REMARK VINA RESULT:    -6.167      4.263      8.758
REMARK INTER + INTRA:          -9.085
REMARK INTER:                  -7.921
REMARK INTRA:                  -1.164
REMARK UNBOUND:                -0.755
REMARK SMILES O=c1c(-c2ccc(O)cc2)coc2c([C@@H]3O[C@H](CO)[C@@H](O)[C@H](O)[C@H]3O)c(O)ccc12
REMARK SMILES IDX 12 1 1 2 14 3 13 4 26 5 30 6 28 7 29 8 2 9 3 10 11 11 15 12
REMARK SMILES IDX 16 13 17 14 24 15 20 16 22 17 18 18 19 19 25 21 21 23 23 25
REMARK SMILES IDX 27 27 4 29 5 30 10 31 6 32 9 33 7 34 8 35
REMARK H PARENT 19 20 25 22 21 24 23 26 27 28 8 36
REMARK INDEX MAP 6 1 8 2 15 3 17 4 18 5 19 6 20 7 21 8 22 9 23 10 24 11 12 12
REMARK INDEX MAP 1 13 14 14 10 15 13 16 11 17 16 18 5 19 43 20 2 21 38 22 4 23
REMARK INDEX MAP 40 24 3 25 39 26 7 27 45 28 25 29 26 30 27 31 28 32 29 33
REMARK INDEX MAP 30 34 9 35 50 36
ROOT
ATOM      1  O   UNL     1      26.042  -8.864  -8.558  1.00  0.00    -0.463 OA
ATOM      2  O   UNL     1      26.333  -6.656  -5.139  1.00  0.00    -0.288 OA
ATOM      3  C   UNL     1      26.601  -6.994  -9.888  1.00  0.00     0.069 A 
ATOM      4  C   UNL     1      26.381  -7.537  -8.620  1.00  0.00     0.147 A 
ATOM      5  C   UNL     1      26.948  -5.650 -10.015  1.00  0.00     0.125 A 
ATOM      6  C   UNL     1      26.505  -6.737  -7.486  1.00  0.00     0.066 A 
ATOM      7  C   UNL     1      27.073  -4.848  -8.879  1.00  0.00     0.047 A 
ATOM      8  C   UNL     1      26.852  -5.389  -7.611  1.00  0.00     0.020 A 
ATOM      9  C   UNL     1      26.263  -7.331  -6.158  1.00  0.00     0.200 A 
ATOM     10  C   UNL     1      25.918  -8.779  -6.133  1.00  0.00     0.065 A 
ATOM     11  C   UNL     1      25.840  -9.411  -7.314  1.00  0.00     0.208 A 
ENDROOT
BRANCH   3  12
ATOM     12  C   UNL     1      26.467  -7.857 -11.126  1.00  0.00     0.188 C 
ATOM     13  O   UNL     1      27.605  -7.605 -11.958  1.00  0.00    -0.362 OA
ATOM     14  C   UNL     1      27.636  -8.433 -13.120  1.00  0.00     0.176 C 
ATOM     15  C   UNL     1      25.162  -7.573 -11.886  1.00  0.00     0.179 C 
ATOM     16  C   UNL     1      26.419  -8.148 -14.001  1.00  0.00     0.177 C 
ATOM     17  C   UNL     1      25.122  -8.335 -13.213  1.00  0.00     0.177 C 
BRANCH  14  18
ATOM     18  C   UNL     1      28.944  -8.146 -13.852  1.00  0.00     0.191 C 
BRANCH  18  19
ATOM     19  O   UNL     1      28.691  -7.190 -14.865  1.00  0.00    -0.394 OA
ATOM     20  H   UNL     1      29.421  -6.548 -14.852  1.00  0.00     0.210 HD
ENDBRANCH  18  19
ENDBRANCH  14  18
BRANCH  15  21
ATOM     21  O   UNL     1      24.062  -7.992 -11.077  1.00  0.00    -0.387 OA
ATOM     22  H   UNL     1      23.251  -7.900 -11.605  1.00  0.00     0.211 HD
ENDBRANCH  15  21
BRANCH  16  23
ATOM     23  O   UNL     1      26.425  -9.036 -15.115  1.00  0.00    -0.388 OA
ATOM     24  H   UNL     1      26.673  -8.527 -15.905  1.00  0.00     0.211 HD
ENDBRANCH  16  23
BRANCH  17  25
ATOM     25  O   UNL     1      24.046  -7.843 -14.012  1.00  0.00    -0.387 OA
ATOM     26  H   UNL     1      23.351  -7.536 -13.404  1.00  0.00     0.211 HD
ENDBRANCH  17  25
ENDBRANCH   3  12
BRANCH   5  27
ATOM     27  O   UNL     1      27.168  -5.099 -11.241  1.00  0.00    -0.507 OA
ATOM     28  H   UNL     1      26.863  -5.716 -11.927  1.00  0.00     0.293 HD
ENDBRANCH   5  27
BRANCH  10  29
ATOM     29  C   UNL     1      25.690  -9.504  -4.874  1.00  0.00    -0.011 A 
ATOM     30  C   UNL     1      24.394  -9.661  -4.379  1.00  0.00     0.013 A 
ATOM     31  C   UNL     1      26.771 -10.039  -4.168  1.00  0.00     0.013 A 
ATOM     32  C   UNL     1      24.179 -10.350  -3.185  1.00  0.00     0.047 A 
ATOM     33  C   UNL     1      26.555 -10.727  -2.974  1.00  0.00     0.047 A 
ATOM     34  C   UNL     1      25.260 -10.883  -2.482  1.00  0.00     0.115 A 
BRANCH  34  35
ATOM     35  O   UNL     1      25.050 -11.553  -1.317  1.00  0.00    -0.508 OA
ATOM     36  H   UNL     1      24.095 -11.705  -1.208  1.00  0.00     0.293 HD
ENDBRANCH  34  35
ENDBRANCH  10  29
TORSDOF 9
ENDMDL
