MODEL 1
REMARK VINA RESULT:    -7.283      0.000      0.000
REMARK INTER + INTRA:         -10.595
REMARK INTER:                  -9.838
REMARK INTRA:                  -0.757
REMARK UNBOUND:                -0.757
REMARK SMILES O=c1c(-c2ccc(O)cc2)coc2c([C@@H]3O[C@H](CO)[C@@H](O)[C@H](O)[C@H]3O)c(O)ccc12
REMARK SMILES IDX 12 1 1 2 14 3 13 4 26 5 30 6 28 7 29 8 2 9 3 10 11 11 15 12
REMARK SMILES IDX 16 13 17 14 24 15 20 16 22 17 18 18 19 19 25 21 21 23 23 25
REMARK SMILES IDX 27 27 4 29 5 30 10 31 6 32 9 33 7 34 8 35
REMARK H PARENT 19 20 25 22 21 24 23 26 27 28 8 36
REMARK INDEX MAP 6 1 8 2 15 3 17 4 18 5 19 6 20 7 21 8 22 9 23 10 24 11 12 12
REMARK INDEX MAP 1 13 14 14 10 15 13 16 11 17 16 18 5 19 43 20 2 21 38 22 4 23
REMARK INDEX MAP 40 24 3 25 39 26 7 27 45 28 25 29 26 30 27 31 28 32 29 33
REMARK INDEX MAP 30 34 9 35 50 36
ROOT
ATOM      1  O   UNL     1      28.986 -11.110  -7.455  1.00  0.00    -0.463 OA
ATOM      2  O   UNL     1      29.551 -10.219 -11.396  1.00  0.00    -0.288 OA
ATOM      3  C   UNL     1      26.683 -10.608  -7.607  1.00  0.00     0.069 A 
ATOM      4  C   UNL     1      27.929 -10.707  -8.229  1.00  0.00     0.147 A 
ATOM      5  C   UNL     1      25.571 -10.202  -8.343  1.00  0.00     0.125 A 
ATOM      6  C   UNL     1      28.061 -10.400  -9.582  1.00  0.00     0.066 A 
ATOM      7  C   UNL     1      25.703  -9.894  -9.698  1.00  0.00     0.047 A 
ATOM      8  C   UNL     1      26.947  -9.992 -10.322  1.00  0.00     0.020 A 
ATOM      9  C   UNL     1      29.387 -10.508 -10.218  1.00  0.00     0.200 A 
ATOM     10  C   UNL     1      30.503 -10.968  -9.346  1.00  0.00     0.065 A 
ATOM     11  C   UNL     1      30.212 -11.228  -8.062  1.00  0.00     0.208 A 
ENDROOT
BRANCH   3  12
ATOM     12  C   UNL     1      26.532 -10.939  -6.136  1.00  0.00     0.188 C 
ATOM     13  O   UNL     1      25.839 -12.189  -6.040  1.00  0.00    -0.362 OA
ATOM     14  C   UNL     1      25.717 -12.653  -4.696  1.00  0.00     0.176 C 
ATOM     15  C   UNL     1      25.778  -9.838  -5.373  1.00  0.00     0.179 C 
ATOM     16  C   UNL     1      24.887 -11.666  -3.873  1.00  0.00     0.177 C 
ATOM     17  C   UNL     1      25.496 -10.265  -3.930  1.00  0.00     0.177 C 
BRANCH  14  18
ATOM     18  C   UNL     1      25.069 -14.033  -4.745  1.00  0.00     0.191 C 
BRANCH  18  19
ATOM     19  O   UNL     1      23.708 -13.904  -4.375  1.00  0.00    -0.394 OA
ATOM     20  H   UNL     1      23.527 -12.958  -4.243  1.00  0.00     0.210 HD
ENDBRANCH  18  19
ENDBRANCH  14  18
BRANCH  15  21
ATOM     21  O   UNL     1      26.584  -8.659  -5.360  1.00  0.00    -0.387 OA
ATOM     22  H   UNL     1      27.445  -8.890  -4.973  1.00  0.00     0.211 HD
ENDBRANCH  15  21
BRANCH  16  23
ATOM     23  O   UNL     1      24.840 -12.104  -2.519  1.00  0.00    -0.388 OA
ATOM     24  H   UNL     1      25.329 -12.942  -2.456  1.00  0.00     0.211 HD
ENDBRANCH  16  23
BRANCH  17  25
ATOM     25  O   UNL     1      24.567  -9.355  -3.339  1.00  0.00    -0.387 OA
ATOM     26  H   UNL     1      24.622  -9.471  -2.375  1.00  0.00     0.211 HD
ENDBRANCH  17  25
ENDBRANCH   3  12
BRANCH   5  27
ATOM     27  O   UNL     1      24.346 -10.099  -7.757  1.00  0.00    -0.507 OA
ATOM     28  H   UNL     1      23.711 -10.648  -8.245  1.00  0.00     0.293 HD
ENDBRANCH   5  27
BRANCH  10  29
ATOM     29  C   UNL     1      31.868 -11.157  -9.862  1.00  0.00    -0.011 A 
ATOM     30  C   UNL     1      32.260 -12.396 -10.374  1.00  0.00     0.013 A 
ATOM     31  C   UNL     1      32.777 -10.096  -9.843  1.00  0.00     0.013 A 
ATOM     32  C   UNL     1      33.554 -12.574 -10.863  1.00  0.00     0.047 A 
ATOM     33  C   UNL     1      34.071 -10.275 -10.332  1.00  0.00     0.047 A 
ATOM     34  C   UNL     1      34.460 -11.513 -10.842  1.00  0.00     0.115 A 
BRANCH  34  35
ATOM     35  O   UNL     1      35.722 -11.688 -11.319  1.00  0.00    -0.508 OA
ATOM     36  H   UNL     1      36.345 -11.678 -10.572  1.00  0.00     0.293 HD
ENDBRANCH  34  35
ENDBRANCH  10  29
TORSDOF 9
ENDMDL
MODEL 2
REMARK VINA RESULT:    -7.271      2.339      2.915
REMARK INTER + INTRA:         -10.579
REMARK INTER:                  -9.695
REMARK INTRA:                  -0.884
REMARK UNBOUND:                -0.757
REMARK SMILES O=c1c(-c2ccc(O)cc2)coc2c([C@@H]3O[C@H](CO)[C@@H](O)[C@H](O)[C@H]3O)c(O)ccc12
REMARK SMILES IDX 12 1 1 2 14 3 13 4 26 5 30 6 28 7 29 8 2 9 3 10 11 11 15 12
REMARK SMILES IDX 16 13 17 14 24 15 20 16 22 17 18 18 19 19 25 21 21 23 23 25
REMARK SMILES IDX 27 27 4 29 5 30 10 31 6 32 9 33 7 34 8 35
REMARK H PARENT 19 20 25 22 21 24 23 26 27 28 8 36
REMARK INDEX MAP 6 1 8 2 15 3 17 4 18 5 19 6 20 7 21 8 22 9 23 10 24 11 12 12
REMARK INDEX MAP 1 13 14 14 10 15 13 16 11 17 16 18 5 19 43 20 2 21 38 22 4 23
REMARK INDEX MAP 40 24 3 25 39 26 7 27 45 28 25 29 26 30 27 31 28 32 29 33
REMARK INDEX MAP 30 34 9 35 50 36
ROOT
ATOM      1  O   UNL     1      28.657 -10.946  -6.657  1.00  0.00    -0.463 OA
ATOM      2  O   UNL     1      30.868  -8.656  -9.209  1.00  0.00    -0.288 OA
ATOM      3  C   UNL     1      27.516  -9.046  -5.841  1.00  0.00     0.069 A 
ATOM      4  C   UNL     1      28.471  -9.589  -6.703  1.00  0.00     0.147 A 
ATOM      5  C   UNL     1      27.283  -7.672  -5.842  1.00  0.00     0.125 A 
ATOM      6  C   UNL     1      29.189  -8.759  -7.561  1.00  0.00     0.066 A 
ATOM      7  C   UNL     1      28.002  -6.840  -6.701  1.00  0.00     0.047 A 
ATOM      8  C   UNL     1      28.957  -7.380  -7.564  1.00  0.00     0.020 A 
ATOM      9  C   UNL     1      30.195  -9.353  -8.461  1.00  0.00     0.200 A 
ATOM     10  C   UNL     1      30.352 -10.832  -8.393  1.00  0.00     0.065 A 
ATOM     11  C   UNL     1      29.582 -11.491  -7.514  1.00  0.00     0.208 A 
ENDROOT
BRANCH   3  12
ATOM     12  C   UNL     1      26.732  -9.942  -4.903  1.00  0.00     0.188 C 
ATOM     13  O   UNL     1      25.431  -9.368  -4.740  1.00  0.00    -0.362 OA
ATOM     14  C   UNL     1      24.564 -10.177  -3.945  1.00  0.00     0.176 C 
ATOM     15  C   UNL     1      27.430 -10.105  -3.544  1.00  0.00     0.179 C 
ATOM     16  C   UNL     1      25.126 -10.314  -2.529  1.00  0.00     0.177 C 
ATOM     17  C   UNL     1      26.547 -10.878  -2.562  1.00  0.00     0.177 C 
BRANCH  14  18
ATOM     18  C   UNL     1      23.190  -9.513  -3.945  1.00  0.00     0.191 C 
BRANCH  18  19
ATOM     19  O   UNL     1      23.364  -8.117  -4.103  1.00  0.00    -0.394 OA
ATOM     20  H   UNL     1      22.967  -7.865  -4.954  1.00  0.00     0.210 HD
ENDBRANCH  18  19
ENDBRANCH  14  18
BRANCH  15  21
ATOM     21  O   UNL     1      28.647 -10.826  -3.740  1.00  0.00    -0.387 OA
ATOM     22  H   UNL     1      28.421 -11.708  -4.081  1.00  0.00     0.211 HD
ENDBRANCH  15  21
BRANCH  16  23
ATOM     23  O   UNL     1      24.291 -11.186  -1.773  1.00  0.00    -0.388 OA
ATOM     24  H   UNL     1      24.863 -11.739  -1.213  1.00  0.00     0.211 HD
ENDBRANCH  16  23
BRANCH  17  25
ATOM     25  O   UNL     1      27.094 -10.772  -1.246  1.00  0.00    -0.387 OA
ATOM     26  H   UNL     1      27.334  -9.840  -1.107  1.00  0.00     0.211 HD
ENDBRANCH  17  25
ENDBRANCH   3  12
BRANCH   5  27
ATOM     27  O   UNL     1      26.356  -7.121  -5.009  1.00  0.00    -0.507 OA
ATOM     28  H   UNL     1      26.782  -6.438  -4.464  1.00  0.00     0.293 HD
ENDBRANCH   5  27
BRANCH  10  29
ATOM     29  C   UNL     1      31.292 -11.557  -9.263  1.00  0.00    -0.011 A 
ATOM     30  C   UNL     1      30.814 -12.323 -10.328  1.00  0.00     0.013 A 
ATOM     31  C   UNL     1      32.667 -11.480  -9.026  1.00  0.00     0.013 A 
ATOM     32  C   UNL     1      31.705 -13.010 -11.152  1.00  0.00     0.047 A 
ATOM     33  C   UNL     1      33.558 -12.167  -9.851  1.00  0.00     0.047 A 
ATOM     34  C   UNL     1      33.078 -12.932 -10.914  1.00  0.00     0.115 A 
BRANCH  34  35
ATOM     35  O   UNL     1      33.947 -13.602 -11.718  1.00  0.00    -0.508 OA
ATOM     36  H   UNL     1      33.463 -14.302 -12.190  1.00  0.00     0.293 HD
ENDBRANCH  34  35
ENDBRANCH  10  29
TORSDOF 9
ENDMDL
MODEL 3
REMARK VINA RESULT:    -7.135      1.069      1.335
REMARK INTER + INTRA:         -10.396
REMARK INTER:                  -9.275
REMARK INTRA:                  -1.120
REMARK UNBOUND:                -0.757
REMARK SMILES O=c1c(-c2ccc(O)cc2)coc2c([C@@H]3O[C@H](CO)[C@@H](O)[C@H](O)[C@H]3O)c(O)ccc12
REMARK SMILES IDX 12 1 1 2 14 3 13 4 26 5 30 6 28 7 29 8 2 9 3 10 11 11 15 12
REMARK SMILES IDX 16 13 17 14 24 15 20 16 22 17 18 18 19 19 25 21 21 23 23 25
REMARK SMILES IDX 27 27 4 29 5 30 10 31 6 32 9 33 7 34 8 35
REMARK H PARENT 19 20 25 22 21 24 23 26 27 28 8 36
REMARK INDEX MAP 6 1 8 2 15 3 17 4 18 5 19 6 20 7 21 8 22 9 23 10 24 11 12 12
REMARK INDEX MAP 1 13 14 14 10 15 13 16 11 17 16 18 5 19 43 20 2 21 38 22 4 23
REMARK INDEX MAP 40 24 3 25 39 26 7 27 45 28 25 29 26 30 27 31 28 32 29 33
REMARK INDEX MAP 30 34 9 35 50 36
ROOT
ATOM      1  O   UNL     1      28.924 -10.179  -7.293  1.00  0.00    -0.463 OA
ATOM      2  O   UNL     1      29.451  -9.280 -11.238  1.00  0.00    -0.288 OA
ATOM      3  C   UNL     1      26.610 -10.520  -7.615  1.00  0.00     0.069 A 
ATOM      4  C   UNL     1      27.857 -10.197  -8.153  1.00  0.00     0.147 A 
ATOM      5  C   UNL     1      25.487 -10.554  -8.441  1.00  0.00     0.125 A 
ATOM      6  C   UNL     1      27.979  -9.910  -9.511  1.00  0.00     0.066 A 
ATOM      7  C   UNL     1      25.609 -10.266  -9.801  1.00  0.00     0.047 A 
ATOM      8  C   UNL     1      26.855  -9.943 -10.341  1.00  0.00     0.020 A 
ATOM      9  C   UNL     1      29.306  -9.568 -10.057  1.00  0.00     0.200 A 
ATOM     10  C   UNL     1      30.441  -9.578  -9.094  1.00  0.00     0.065 A 
ATOM     11  C   UNL     1      30.159  -9.879  -7.817  1.00  0.00     0.208 A 
ENDROOT
BRANCH   3  12
ATOM     12  C   UNL     1      26.469 -10.833  -6.139  1.00  0.00     0.188 C 
ATOM     13  O   UNL     1      25.823 -12.106  -6.024  1.00  0.00    -0.362 OA
ATOM     14  C   UNL     1      25.717 -12.553  -4.673  1.00  0.00     0.176 C 
ATOM     15  C   UNL     1      25.673  -9.749  -5.395  1.00  0.00     0.179 C 
ATOM     16  C   UNL     1      24.848 -11.585  -3.867  1.00  0.00     0.177 C 
ATOM     17  C   UNL     1      25.405 -10.162  -3.946  1.00  0.00     0.177 C 
BRANCH  14  18
ATOM     18  C   UNL     1      25.120 -13.957  -4.700  1.00  0.00     0.191 C 
BRANCH  18  19
ATOM     19  O   UNL     1      23.737 -13.864  -4.412  1.00  0.00    -0.394 OA
ATOM     20  H   UNL     1      23.342 -14.736  -4.583  1.00  0.00     0.210 HD
ENDBRANCH  18  19
ENDBRANCH  14  18
BRANCH  15  21
ATOM     21  O   UNL     1      26.434  -8.540  -5.400  1.00  0.00    -0.387 OA
ATOM     22  H   UNL     1      26.869  -8.458  -4.535  1.00  0.00     0.211 HD
ENDBRANCH  15  21
BRANCH  16  23
ATOM     23  O   UNL     1      24.816 -12.002  -2.505  1.00  0.00    -0.388 OA
ATOM     24  H   UNL     1      24.967 -11.220  -1.947  1.00  0.00     0.211 HD
ENDBRANCH  16  23
BRANCH  17  25
ATOM     25  O   UNL     1      24.441  -9.280  -3.370  1.00  0.00    -0.387 OA
ATOM     26  H   UNL     1      23.872  -8.961  -4.092  1.00  0.00     0.211 HD
ENDBRANCH  17  25
ENDBRANCH   3  12
BRANCH   5  27
ATOM     27  O   UNL     1      24.261 -10.866  -7.937  1.00  0.00    -0.507 OA
ATOM     28  H   UNL     1      23.623 -10.182  -8.202  1.00  0.00     0.293 HD
ENDBRANCH   5  27
BRANCH  10  29
ATOM     29  C   UNL     1      31.822  -9.294  -9.513  1.00  0.00    -0.011 A 
ATOM     30  C   UNL     1      32.652 -10.332  -9.944  1.00  0.00     0.013 A 
ATOM     31  C   UNL     1      32.308  -7.985  -9.483  1.00  0.00     0.013 A 
ATOM     32  C   UNL     1      33.961 -10.062 -10.342  1.00  0.00     0.047 A 
ATOM     33  C   UNL     1      33.618  -7.716  -9.881  1.00  0.00     0.047 A 
ATOM     34  C   UNL     1      34.445  -8.754 -10.310  1.00  0.00     0.115 A 
BRANCH  34  35
ATOM     35  O   UNL     1      35.722  -8.491 -10.697  1.00  0.00    -0.508 OA
ATOM     36  H   UNL     1      35.884  -8.914 -11.558  1.00  0.00     0.293 HD
ENDBRANCH  34  35
ENDBRANCH  10  29
TORSDOF 9
ENDMDL
MODEL 4
REMARK VINA RESULT:    -7.066      2.218      3.150
REMARK INTER + INTRA:         -10.302
REMARK INTER:                  -9.336
REMARK INTRA:                  -0.966
REMARK UNBOUND:                -0.757
REMARK SMILES O=c1c(-c2ccc(O)cc2)coc2c([C@@H]3O[C@H](CO)[C@@H](O)[C@H](O)[C@H]3O)c(O)ccc12
REMARK SMILES IDX 12 1 1 2 14 3 13 4 26 5 30 6 28 7 29 8 2 9 3 10 11 11 15 12
REMARK SMILES IDX 16 13 17 14 24 15 20 16 22 17 18 18 19 19 25 21 21 23 23 25
REMARK SMILES IDX 27 27 4 29 5 30 10 31 6 32 9 33 7 34 8 35
REMARK H PARENT 19 20 25 22 21 24 23 26 27 28 8 36
REMARK INDEX MAP 6 1 8 2 15 3 17 4 18 5 19 6 20 7 21 8 22 9 23 10 24 11 12 12
REMARK INDEX MAP 1 13 14 14 10 15 13 16 11 17 16 18 5 19 43 20 2 21 38 22 4 23
REMARK INDEX MAP 40 24 3 25 39 26 7 27 45 28 25 29 26 30 27 31 28 32 29 33
REMARK INDEX MAP 30 34 9 35 50 36
ROOT
ATOM      1  O   UNL     1      27.786 -10.405  -7.330  1.00  0.00    -0.463 OA
ATOM      2  O   UNL     1      29.539  -7.852  -9.987  1.00  0.00    -0.288 OA
ATOM      3  C   UNL     1      26.728  -8.615  -6.211  1.00  0.00     0.069 A 
ATOM      4  C   UNL     1      27.560  -9.056  -7.242  1.00  0.00     0.147 A 
ATOM      5  C   UNL     1      26.462  -7.253  -6.071  1.00  0.00     0.125 A 
ATOM      6  C   UNL     1      28.122  -8.139  -8.127  1.00  0.00     0.066 A 
ATOM      7  C   UNL     1      27.025  -6.334  -6.957  1.00  0.00     0.047 A 
ATOM      8  C   UNL     1      27.857  -6.773  -7.988  1.00  0.00     0.020 A 
ATOM      9  C   UNL     1      29.001  -8.627  -9.207  1.00  0.00     0.200 A 
ATOM     10  C   UNL     1      29.204 -10.100  -9.279  1.00  0.00     0.065 A 
ATOM     11  C   UNL     1      28.589 -10.851  -8.352  1.00  0.00     0.208 A 
ENDROOT
BRANCH   3  12
ATOM     12  C   UNL     1      26.113  -9.606  -5.244  1.00  0.00     0.188 C 
ATOM     13  O   UNL     1      24.807  -9.128  -4.904  1.00  0.00    -0.362 OA
ATOM     14  C   UNL     1      24.088 -10.032  -4.064  1.00  0.00     0.176 C 
ATOM     15  C   UNL     1      26.972  -9.788  -3.983  1.00  0.00     0.179 C 
ATOM     16  C   UNL     1      24.817 -10.200  -2.730  1.00  0.00     0.177 C 
ATOM     17  C   UNL     1      26.257 -10.665  -2.953  1.00  0.00     0.177 C 
BRANCH  14  18
ATOM     18  C   UNL     1      22.685  -9.462  -3.873  1.00  0.00     0.191 C 
BRANCH  18  19
ATOM     19  O   UNL     1      22.760  -8.050  -3.940  1.00  0.00    -0.394 OA
ATOM     20  H   UNL     1      22.465  -7.782  -4.827  1.00  0.00     0.210 HD
ENDBRANCH  18  19
ENDBRANCH  14  18
BRANCH  15  21
ATOM     21  O   UNL     1      28.200 -10.415  -4.355  1.00  0.00    -0.387 OA
ATOM     22  H   UNL     1      28.926  -9.812  -4.121  1.00  0.00     0.211 HD
ENDBRANCH  15  21
BRANCH  16  23
ATOM     23  O   UNL     1      24.130 -11.162  -1.935  1.00  0.00    -0.388 OA
ATOM     24  H   UNL     1      23.194 -10.901  -1.889  1.00  0.00     0.211 HD
ENDBRANCH  16  23
BRANCH  17  25
ATOM     25  O   UNL     1      26.944 -10.588  -1.703  1.00  0.00    -0.387 OA
ATOM     26  H   UNL     1      27.887 -10.455  -1.900  1.00  0.00     0.211 HD
ENDBRANCH  17  25
ENDBRANCH   3  12
BRANCH   5  27
ATOM     27  O   UNL     1      25.653  -6.801  -5.073  1.00  0.00    -0.507 OA
ATOM     28  H   UNL     1      26.198  -6.566  -4.302  1.00  0.00     0.293 HD
ENDBRANCH   5  27
BRANCH  10  29
ATOM     29  C   UNL     1      30.025 -10.723 -10.329  1.00  0.00    -0.011 A 
ATOM     30  C   UNL     1      31.409 -10.821 -10.173  1.00  0.00     0.013 A 
ATOM     31  C   UNL     1      29.421 -11.220 -11.487  1.00  0.00     0.013 A 
ATOM     32  C   UNL     1      32.186 -11.412 -11.169  1.00  0.00     0.047 A 
ATOM     33  C   UNL     1      30.199 -11.811 -12.483  1.00  0.00     0.047 A 
ATOM     34  C   UNL     1      31.581 -11.907 -12.325  1.00  0.00     0.115 A 
BRANCH  34  35
ATOM     35  O   UNL     1      32.340 -12.482 -13.297  1.00  0.00    -0.508 OA
ATOM     36  H   UNL     1      32.873 -13.193 -12.900  1.00  0.00     0.293 HD
ENDBRANCH  34  35
ENDBRANCH  10  29
TORSDOF 9
ENDMDL
MODEL 5
REMARK VINA RESULT:    -7.031      2.369      5.650
REMARK INTER + INTRA:         -10.255
REMARK INTER:                  -9.851
REMARK INTRA:                  -0.404
REMARK UNBOUND:                -0.757
REMARK SMILES O=c1c(-c2ccc(O)cc2)coc2c([C@@H]3O[C@H](CO)[C@@H](O)[C@H](O)[C@H]3O)c(O)ccc12
REMARK SMILES IDX 12 1 1 2 14 3 13 4 26 5 30 6 28 7 29 8 2 9 3 10 11 11 15 12
REMARK SMILES IDX 16 13 17 14 24 15 20 16 22 17 18 18 19 19 25 21 21 23 23 25
REMARK SMILES IDX 27 27 4 29 5 30 10 31 6 32 9 33 7 34 8 35
REMARK H PARENT 19 20 25 22 21 24 23 26 27 28 8 36
REMARK INDEX MAP 6 1 8 2 15 3 17 4 18 5 19 6 20 7 21 8 22 9 23 10 24 11 12 12
REMARK INDEX MAP 1 13 14 14 10 15 13 16 11 17 16 18 5 19 43 20 2 21 38 22 4 23
REMARK INDEX MAP 40 24 3 25 39 26 7 27 45 28 25 29 26 30 27 31 28 32 29 33
REMARK INDEX MAP 30 34 9 35 50 36
ROOT
ATOM      1  O   UNL     1      26.237  -9.978  -7.856  1.00  0.00    -0.463 OA
ATOM      2  O   UNL     1      27.956  -9.055 -11.440  1.00  0.00    -0.288 OA
ATOM      3  C   UNL     1      28.238 -10.963  -7.080  1.00  0.00     0.069 A 
ATOM      4  C   UNL     1      27.547 -10.303  -8.098  1.00  0.00     0.147 A 
ATOM      5  C   UNL     1      29.573 -11.320  -7.267  1.00  0.00     0.125 A 
ATOM      6  C   UNL     1      28.189 -10.004  -9.298  1.00  0.00     0.066 A 
ATOM      7  C   UNL     1      30.216 -11.021  -8.469  1.00  0.00     0.047 A 
ATOM      8  C   UNL     1      29.526 -10.362  -9.488  1.00  0.00     0.020 A 
ATOM      9  C   UNL     1      27.438  -9.310 -10.361  1.00  0.00     0.200 A 
ATOM     10  C   UNL     1      26.025  -8.957 -10.050  1.00  0.00     0.065 A 
ATOM     11  C   UNL     1      25.554  -9.313  -8.846  1.00  0.00     0.208 A 
ENDROOT
BRANCH   3  12
ATOM     12  C   UNL     1      27.547 -11.293  -5.772  1.00  0.00     0.188 C 
ATOM     13  O   UNL     1      26.652 -12.384  -6.016  1.00  0.00    -0.362 OA
ATOM     14  C   UNL     1      26.007 -12.847  -4.830  1.00  0.00     0.176 C 
ATOM     15  C   UNL     1      26.789 -10.085  -5.201  1.00  0.00     0.179 C 
ATOM     16  C   UNL     1      25.138 -11.736  -4.238  1.00  0.00     0.177 C 
ATOM     17  C   UNL     1      25.969 -10.481  -3.971  1.00  0.00     0.177 C 
BRANCH  14  18
ATOM     18  C   UNL     1      25.178 -14.072  -5.208  1.00  0.00     0.191 C 
BRANCH  18  19
ATOM     19  O   UNL     1      25.237 -15.001  -4.141  1.00  0.00    -0.394 OA
ATOM     20  H   UNL     1      25.120 -15.890  -4.518  1.00  0.00     0.210 HD
ENDBRANCH  18  19
ENDBRANCH  14  18
BRANCH  15  21
ATOM     21  O   UNL     1      27.739  -9.087  -4.824  1.00  0.00    -0.387 OA
ATOM     22  H   UNL     1      27.261  -8.250  -4.702  1.00  0.00     0.211 HD
ENDBRANCH  15  21
BRANCH  16  23
ATOM     23  O   UNL     1      24.564 -12.189  -3.015  1.00  0.00    -0.388 OA
ATOM     24  H   UNL     1      25.242 -12.691  -2.532  1.00  0.00     0.211 HD
ENDBRANCH  16  23
BRANCH  17  25
ATOM     25  O   UNL     1      25.073  -9.421  -3.635  1.00  0.00    -0.387 OA
ATOM     26  H   UNL     1      24.205  -9.646  -4.014  1.00  0.00     0.211 HD
ENDBRANCH  17  25
ENDBRANCH   3  12
BRANCH   5  27
ATOM     27  O   UNL     1      30.266 -11.964  -6.288  1.00  0.00    -0.507 OA
ATOM     28  H   UNL     1      30.904 -12.574  -6.696  1.00  0.00     0.293 HD
ENDBRANCH   5  27
BRANCH  10  29
ATOM     29  C   UNL     1      25.176  -8.229 -11.006  1.00  0.00    -0.011 A 
ATOM     30  C   UNL     1      24.579  -8.906 -12.072  1.00  0.00     0.013 A 
ATOM     31  C   UNL     1      24.962  -6.857 -10.851  1.00  0.00     0.013 A 
ATOM     32  C   UNL     1      23.774  -8.216 -12.978  1.00  0.00     0.047 A 
ATOM     33  C   UNL     1      24.157  -6.167 -11.756  1.00  0.00     0.047 A 
ATOM     34  C   UNL     1      23.562  -6.846 -12.820  1.00  0.00     0.115 A 
BRANCH  34  35
ATOM     35  O   UNL     1      22.777  -6.173 -13.705  1.00  0.00    -0.508 OA
ATOM     36  H   UNL     1      23.292  -5.443 -14.091  1.00  0.00     0.293 HD
ENDBRANCH  34  35
ENDBRANCH  10  29
TORSDOF 9
ENDMDL
MODEL 6
REMARK VINA RESULT:    -6.998      2.732      5.781
REMARK INTER + INTRA:         -10.210
REMARK INTER:                  -9.407
REMARK INTRA:                  -0.803
REMARK UNBOUND:                -0.757
REMARK SMILES O=c1c(-c2ccc(O)cc2)coc2c([C@@H]3O[C@H](CO)[C@@H](O)[C@H](O)[C@H]3O)c(O)ccc12
REMARK SMILES IDX 12 1 1 2 14 3 13 4 26 5 30 6 28 7 29 8 2 9 3 10 11 11 15 12
REMARK SMILES IDX 16 13 17 14 24 15 20 16 22 17 18 18 19 19 25 21 21 23 23 25
REMARK SMILES IDX 27 27 4 29 5 30 10 31 6 32 9 33 7 34 8 35
REMARK H PARENT 19 20 25 22 21 24 23 26 27 28 8 36
REMARK INDEX MAP 6 1 8 2 15 3 17 4 18 5 19 6 20 7 21 8 22 9 23 10 24 11 12 12
REMARK INDEX MAP 1 13 14 14 10 15 13 16 11 17 16 18 5 19 43 20 2 21 38 22 4 23
REMARK INDEX MAP 40 24 3 25 39 26 7 27 45 28 25 29 26 30 27 31 28 32 29 33
REMARK INDEX MAP 30 34 9 35 50 36
ROOT
ATOM      1  O   UNL     1      25.901  -9.452  -8.511  1.00  0.00    -0.463 OA
ATOM      2  O   UNL     1      28.433  -9.197 -11.701  1.00  0.00    -0.288 OA
ATOM      3  C   UNL     1      27.543 -10.549  -7.215  1.00  0.00     0.069 A 
ATOM      4  C   UNL     1      27.175  -9.951  -8.422  1.00  0.00     0.147 A 
ATOM      5  C   UNL     1      28.825 -11.075  -7.066  1.00  0.00     0.125 A 
ATOM      6  C   UNL     1      28.085  -9.883  -9.475  1.00  0.00     0.066 A 
ATOM      7  C   UNL     1      29.738 -11.008  -8.120  1.00  0.00     0.047 A 
ATOM      8  C   UNL     1      29.371 -10.411  -9.328  1.00  0.00     0.020 A 
ATOM      9  C   UNL     1      27.673  -9.251 -10.742  1.00  0.00     0.200 A 
ATOM     10  C   UNL     1      26.289  -8.704 -10.789  1.00  0.00     0.065 A 
ATOM     11  C   UNL     1      25.535  -8.846  -9.689  1.00  0.00     0.208 A 
ENDROOT
BRANCH   3  12
ATOM     12  C   UNL     1      26.558 -10.627  -6.066  1.00  0.00     0.188 C 
ATOM     13  O   UNL     1      27.301 -10.509  -4.848  1.00  0.00    -0.362 OA
ATOM     14  C   UNL     1      26.466 -10.477  -3.691  1.00  0.00     0.176 C 
ATOM     15  C   UNL     1      25.753 -11.936  -6.088  1.00  0.00     0.179 C 
ATOM     16  C   UNL     1      25.692 -11.791  -3.567  1.00  0.00     0.177 C 
ATOM     17  C   UNL     1      24.883 -12.067  -4.835  1.00  0.00     0.177 C 
BRANCH  14  18
ATOM     18  C   UNL     1      27.366 -10.236  -2.483  1.00  0.00     0.191 C 
BRANCH  18  19
ATOM     19  O   UNL     1      28.626  -9.783  -2.943  1.00  0.00    -0.394 OA
ATOM     20  H   UNL     1      28.470  -9.023  -3.528  1.00  0.00     0.210 HD
ENDBRANCH  18  19
ENDBRANCH  14  18
BRANCH  15  21
ATOM     21  O   UNL     1      24.909 -11.932  -7.240  1.00  0.00    -0.387 OA
ATOM     22  H   UNL     1      25.395 -12.354  -7.968  1.00  0.00     0.211 HD
ENDBRANCH  15  21
BRANCH  16  23
ATOM     23  O   UNL     1      24.807 -11.713  -2.453  1.00  0.00    -0.388 OA
ATOM     24  H   UNL     1      24.501 -12.613  -2.248  1.00  0.00     0.211 HD
ENDBRANCH  16  23
BRANCH  17  25
ATOM     25  O   UNL     1      24.369 -13.396  -4.750  1.00  0.00    -0.387 OA
ATOM     26  H   UNL     1      24.882 -13.862  -4.066  1.00  0.00     0.211 HD
ENDBRANCH  17  25
ENDBRANCH   3  12
BRANCH   5  27
ATOM     27  O   UNL     1      29.206 -11.662  -5.898  1.00  0.00    -0.507 OA
ATOM     28  H   UNL     1      30.126 -11.417  -5.702  1.00  0.00     0.293 HD
ENDBRANCH   5  27
BRANCH  10  29
ATOM     29  C   UNL     1      25.764  -8.014 -11.978  1.00  0.00    -0.011 A 
ATOM     30  C   UNL     1      26.270  -6.765 -12.345  1.00  0.00     0.013 A 
ATOM     31  C   UNL     1      24.758  -8.606 -12.744  1.00  0.00     0.013 A 
ATOM     32  C   UNL     1      25.772  -6.111 -13.472  1.00  0.00     0.047 A 
ATOM     33  C   UNL     1      24.260  -7.953 -13.871  1.00  0.00     0.047 A 
ATOM     34  C   UNL     1      24.766  -6.705 -14.236  1.00  0.00     0.115 A 
BRANCH  34  35
ATOM     35  O   UNL     1      24.280  -6.067 -15.334  1.00  0.00    -0.508 OA
ATOM     36  H   UNL     1      24.782  -6.357 -16.115  1.00  0.00     0.293 HD
ENDBRANCH  34  35
ENDBRANCH  10  29
TORSDOF 9
ENDMDL
MODEL 7
REMARK VINA RESULT:    -6.838      1.471      1.595
REMARK INTER + INTRA:          -9.994
REMARK INTER:                  -8.977
REMARK INTRA:                  -1.017
REMARK UNBOUND:                -0.757
REMARK SMILES O=c1c(-c2ccc(O)cc2)coc2c([C@@H]3O[C@H](CO)[C@@H](O)[C@H](O)[C@H]3O)c(O)ccc12
REMARK SMILES IDX 12 1 1 2 14 3 13 4 26 5 30 6 28 7 29 8 2 9 3 10 11 11 15 12
REMARK SMILES IDX 16 13 17 14 24 15 20 16 22 17 18 18 19 19 25 21 21 23 23 25
REMARK SMILES IDX 27 27 4 29 5 30 10 31 6 32 9 33 7 34 8 35
REMARK H PARENT 19 20 25 22 21 24 23 26 27 28 8 36
REMARK INDEX MAP 6 1 8 2 15 3 17 4 18 5 19 6 20 7 21 8 22 9 23 10 24 11 12 12
REMARK INDEX MAP 1 13 14 14 10 15 13 16 11 17 16 18 5 19 43 20 2 21 38 22 4 23
REMARK INDEX MAP 40 24 3 25 39 26 7 27 45 28 25 29 26 30 27 31 28 32 29 33
REMARK INDEX MAP 30 34 9 35 50 36
ROOT
ATOM      1  O   UNL     1      29.501 -11.622  -7.066  1.00  0.00    -0.463 OA
ATOM      2  O   UNL     1      30.565  -9.760 -10.537  1.00  0.00    -0.288 OA
ATOM      3  C   UNL     1      27.648 -10.184  -6.789  1.00  0.00     0.069 A 
ATOM      4  C   UNL     1      28.755 -10.575  -7.544  1.00  0.00     0.147 A 
ATOM      5  C   UNL     1      26.853  -9.125  -7.224  1.00  0.00     0.125 A 
ATOM      6  C   UNL     1      29.065  -9.909  -8.728  1.00  0.00     0.066 A 
ATOM      7  C   UNL     1      27.162  -8.457  -8.410  1.00  0.00     0.047 A 
ATOM      8  C   UNL     1      28.269  -8.847  -9.165  1.00  0.00     0.020 A 
ATOM      9  C   UNL     1      30.242 -10.337  -9.507  1.00  0.00     0.200 A 
ATOM     10  C   UNL     1      31.011 -11.490  -8.963  1.00  0.00     0.065 A 
ATOM     11  C   UNL     1      30.582 -12.026  -7.811  1.00  0.00     0.208 A 
ENDROOT
BRANCH   3  12
ATOM     12  C   UNL     1      27.305 -10.903  -5.499  1.00  0.00     0.188 C 
ATOM     13  O   UNL     1      25.944 -11.337  -5.593  1.00  0.00    -0.362 OA
ATOM     14  C   UNL     1      25.532 -12.112  -4.467  1.00  0.00     0.176 C 
ATOM     15  C   UNL     1      27.508 -10.005  -4.269  1.00  0.00     0.179 C 
ATOM     16  C   UNL     1      25.600 -11.266  -3.194  1.00  0.00     0.177 C 
ATOM     17  C   UNL     1      27.005 -10.693  -2.998  1.00  0.00     0.177 C 
BRANCH  14  18
ATOM     18  C   UNL     1      24.114 -12.603  -4.743  1.00  0.00     0.191 C 
BRANCH  18  19
ATOM     19  O   UNL     1      24.047 -13.984  -4.434  1.00  0.00    -0.394 OA
ATOM     20  H   UNL     1      24.319 -14.476  -5.227  1.00  0.00     0.210 HD
ENDBRANCH  18  19
ENDBRANCH  14  18
BRANCH  15  21
ATOM     21  O   UNL     1      28.902  -9.732  -4.128  1.00  0.00    -0.387 OA
ATOM     22  H   UNL     1      29.067  -9.487  -3.202  1.00  0.00     0.211 HD
ENDBRANCH  15  21
BRANCH  16  23
ATOM     23  O   UNL     1      25.261 -12.075  -2.072  1.00  0.00    -0.388 OA
ATOM     24  H   UNL     1      24.422 -12.526  -2.268  1.00  0.00     0.211 HD
ENDBRANCH  16  23
BRANCH  17  25
ATOM     25  O   UNL     1      26.949  -9.744  -1.933  1.00  0.00    -0.387 OA
ATOM     26  H   UNL     1      27.235  -8.887  -2.294  1.00  0.00     0.211 HD
ENDBRANCH  17  25
ENDBRANCH   3  12
BRANCH   5  27
ATOM     27  O   UNL     1      25.768  -8.726  -6.504  1.00  0.00    -0.507 OA
ATOM     28  H   UNL     1      25.344  -7.976  -6.953  1.00  0.00     0.293 HD
ENDBRANCH   5  27
BRANCH  10  29
ATOM     29  C   UNL     1      32.183 -12.043  -9.661  1.00  0.00    -0.011 A 
ATOM     30  C   UNL     1      32.017 -13.020 -10.645  1.00  0.00     0.013 A 
ATOM     31  C   UNL     1      33.466 -11.593  -9.341  1.00  0.00     0.013 A 
ATOM     32  C   UNL     1      33.128 -13.544 -11.306  1.00  0.00     0.047 A 
ATOM     33  C   UNL     1      34.577 -12.117 -10.003  1.00  0.00     0.047 A 
ATOM     34  C   UNL     1      34.408 -13.092 -10.985  1.00  0.00     0.115 A 
BRANCH  34  35
ATOM     35  O   UNL     1      35.492 -13.605 -11.630  1.00  0.00    -0.508 OA
ATOM     36  H   UNL     1      36.177 -13.817 -10.973  1.00  0.00     0.293 HD
ENDBRANCH  34  35
ENDBRANCH  10  29
TORSDOF 9
ENDMDL
MODEL 8
REMARK VINA RESULT:    -6.828      2.927      3.356
REMARK INTER + INTRA:          -9.980
REMARK INTER:                  -8.852
REMARK INTRA:                  -1.128
REMARK UNBOUND:                -0.757
REMARK SMILES O=c1c(-c2ccc(O)cc2)coc2c([C@@H]3O[C@H](CO)[C@@H](O)[C@H](O)[C@H]3O)c(O)ccc12
REMARK SMILES IDX 12 1 1 2 14 3 13 4 26 5 30 6 28 7 29 8 2 9 3 10 11 11 15 12
REMARK SMILES IDX 16 13 17 14 24 15 20 16 22 17 18 18 19 19 25 21 21 23 23 25
REMARK SMILES IDX 27 27 4 29 5 30 10 31 6 32 9 33 7 34 8 35
REMARK H PARENT 19 20 25 22 21 24 23 26 27 28 8 36
REMARK INDEX MAP 6 1 8 2 15 3 17 4 18 5 19 6 20 7 21 8 22 9 23 10 24 11 12 12
REMARK INDEX MAP 1 13 14 14 10 15 13 16 11 17 16 18 5 19 43 20 2 21 38 22 4 23
REMARK INDEX MAP 40 24 3 25 39 26 7 27 45 28 25 29 26 30 27 31 28 32 29 33
REMARK INDEX MAP 30 34 9 35 50 36
ROOT
ATOM      1  O   UNL     1      28.382  -8.693  -6.939  1.00  0.00    -0.463 OA
ATOM      2  O   UNL     1      28.766  -7.334 -10.767  1.00  0.00    -0.288 OA
ATOM      3  C   UNL     1      26.431  -9.901  -7.497  1.00  0.00     0.069 A 
ATOM      4  C   UNL     1      27.474  -9.065  -7.897  1.00  0.00     0.147 A 
ATOM      5  C   UNL     1      25.477 -10.312  -8.428  1.00  0.00     0.125 A 
ATOM      6  C   UNL     1      27.561  -8.640  -9.222  1.00  0.00     0.066 A 
ATOM      7  C   UNL     1      25.563  -9.887  -9.754  1.00  0.00     0.047 A 
ATOM      8  C   UNL     1      26.606  -9.050 -10.155  1.00  0.00     0.020 A 
ATOM      9  C   UNL     1      28.670  -7.753  -9.621  1.00  0.00     0.200 A 
ATOM     10  C   UNL     1      29.644  -7.390  -8.555  1.00  0.00     0.065 A 
ATOM     11  C   UNL     1      29.422  -7.884  -7.327  1.00  0.00     0.208 A 
ENDROOT
BRANCH   3  12
ATOM     12  C   UNL     1      26.328 -10.367  -6.058  1.00  0.00     0.188 C 
ATOM     13  O   UNL     1      25.876 -11.725  -6.072  1.00  0.00    -0.362 OA
ATOM     14  C   UNL     1      25.828 -12.305  -4.769  1.00  0.00     0.176 C 
ATOM     15  C   UNL     1      25.378  -9.483  -5.235  1.00  0.00     0.179 C 
ATOM     16  C   UNL     1      24.823 -11.552  -3.895  1.00  0.00     0.177 C 
ATOM     17  C   UNL     1      25.165 -10.063  -3.834  1.00  0.00     0.177 C 
BRANCH  14  18
ATOM     18  C   UNL     1      25.445 -13.773  -4.934  1.00  0.00     0.191 C 
BRANCH  18  19
ATOM     19  O   UNL     1      24.068 -13.915  -4.634  1.00  0.00    -0.394 OA
ATOM     20  H   UNL     1      23.615 -14.186  -5.451  1.00  0.00     0.210 HD
ENDBRANCH  18  19
ENDBRANCH  14  18
BRANCH  15  21
ATOM     21  O   UNL     1      25.954  -8.182  -5.116  1.00  0.00    -0.387 OA
ATOM     22  H   UNL     1      25.234  -7.531  -5.169  1.00  0.00     0.211 HD
ENDBRANCH  15  21
BRANCH  16  23
ATOM     23  O   UNL     1      24.845 -12.094  -2.578  1.00  0.00    -0.388 OA
ATOM     24  H   UNL     1      25.747 -12.408  -2.397  1.00  0.00     0.211 HD
ENDBRANCH  16  23
BRANCH  17  25
ATOM     25  O   UNL     1      24.079  -9.387  -3.200  1.00  0.00    -0.387 OA
ATOM     26  H   UNL     1      23.856  -8.617  -3.751  1.00  0.00     0.211 HD
ENDBRANCH  17  25
ENDBRANCH   3  12
BRANCH   5  27
ATOM     27  O   UNL     1      24.450 -11.128  -8.059  1.00  0.00    -0.507 OA
ATOM     28  H   UNL     1      24.543 -11.983  -8.514  1.00  0.00     0.293 HD
ENDBRANCH   5  27
BRANCH  10  29
ATOM     29  C   UNL     1      30.817  -6.545  -8.826  1.00  0.00    -0.011 A 
ATOM     30  C   UNL     1      32.011  -7.122  -9.263  1.00  0.00     0.013 A 
ATOM     31  C   UNL     1      30.740  -5.162  -8.647  1.00  0.00     0.013 A 
ATOM     32  C   UNL     1      33.123  -6.320  -9.520  1.00  0.00     0.047 A 
ATOM     33  C   UNL     1      31.853  -4.360  -8.904  1.00  0.00     0.047 A 
ATOM     34  C   UNL     1      33.044  -4.939  -9.341  1.00  0.00     0.115 A 
BRANCH  34  35
ATOM     35  O   UNL     1      34.130  -4.157  -9.591  1.00  0.00    -0.508 OA
ATOM     36  H   UNL     1      34.412  -3.735  -8.761  1.00  0.00     0.293 HD
ENDBRANCH  34  35
ENDBRANCH  10  29
TORSDOF 9
ENDMDL
MODEL 9
REMARK VINA RESULT:    -6.821      3.016      7.870
REMARK INTER + INTRA:          -9.971
REMARK INTER:                  -9.422
REMARK INTRA:                  -0.549
REMARK UNBOUND:                -0.757
REMARK SMILES O=c1c(-c2ccc(O)cc2)coc2c([C@@H]3O[C@H](CO)[C@@H](O)[C@H](O)[C@H]3O)c(O)ccc12
REMARK SMILES IDX 12 1 1 2 14 3 13 4 26 5 30 6 28 7 29 8 2 9 3 10 11 11 15 12
REMARK SMILES IDX 16 13 17 14 24 15 20 16 22 17 18 18 19 19 25 21 21 23 23 25
REMARK SMILES IDX 27 27 4 29 5 30 10 31 6 32 9 33 7 34 8 35
REMARK H PARENT 19 20 25 22 21 24 23 26 27 28 8 36
REMARK INDEX MAP 6 1 8 2 15 3 17 4 18 5 19 6 20 7 21 8 22 9 23 10 24 11 12 12
REMARK INDEX MAP 1 13 14 14 10 15 13 16 11 17 16 18 5 19 43 20 2 21 38 22 4 23
REMARK INDEX MAP 40 24 3 25 39 26 7 27 45 28 25 29 26 30 27 31 28 32 29 33
REMARK INDEX MAP 30 34 9 35 50 36
ROOT
ATOM      1  O   UNL     1      26.152  -8.760  -8.497  1.00  0.00    -0.463 OA
ATOM      2  O   UNL     1      28.533 -11.552  -6.711  1.00  0.00    -0.288 OA
ATOM      3  C   UNL     1      27.430  -8.850 -10.481  1.00  0.00     0.069 A 
ATOM      4  C   UNL     1      27.210  -9.303  -9.180  1.00  0.00     0.147 A 
ATOM      5  C   UNL     1      28.491  -9.365 -11.225  1.00  0.00     0.125 A 
ATOM      6  C   UNL     1      28.050 -10.267  -8.624  1.00  0.00     0.066 A 
ATOM      7  C   UNL     1      29.332 -10.330 -10.669  1.00  0.00     0.047 A 
ATOM      8  C   UNL     1      29.114 -10.784  -9.368  1.00  0.00     0.020 A 
ATOM      9  C   UNL     1      27.801 -10.729  -7.246  1.00  0.00     0.200 A 
ATOM     10  C   UNL     1      26.631 -10.128  -6.548  1.00  0.00     0.065 A 
ATOM     11  C   UNL     1      25.918  -9.213  -7.221  1.00  0.00     0.208 A 
ENDROOT
BRANCH   3  12
ATOM     12  C   UNL     1      26.522  -7.801 -11.092  1.00  0.00     0.188 C 
ATOM     13  O   UNL     1      26.662  -6.603 -10.322  1.00  0.00    -0.362 OA
ATOM     14  C   UNL     1      25.919  -5.509 -10.859  1.00  0.00     0.176 C 
ATOM     15  C   UNL     1      25.055  -8.260 -11.125  1.00  0.00     0.179 C 
ATOM     16  C   UNL     1      24.423  -5.830 -10.839  1.00  0.00     0.177 C 
ATOM     17  C   UNL     1      24.137  -7.128 -11.594  1.00  0.00     0.177 C 
BRANCH  14  18
ATOM     18  C   UNL     1      26.243  -4.278 -10.018  1.00  0.00     0.191 C 
BRANCH  18  19
ATOM     19  O   UNL     1      25.190  -4.073  -9.094  1.00  0.00    -0.394 OA
ATOM     20  H   UNL     1      25.364  -3.237  -8.630  1.00  0.00     0.210 HD
ENDBRANCH  18  19
ENDBRANCH  14  18
BRANCH  15  21
ATOM     21  O   UNL     1      24.941  -9.357 -12.032  1.00  0.00    -0.387 OA
ATOM     22  H   UNL     1      25.821  -9.757 -12.130  1.00  0.00     0.211 HD
ENDBRANCH  15  21
BRANCH  16  23
ATOM     23  O   UNL     1      23.704  -4.763 -11.449  1.00  0.00    -0.388 OA
ATOM     24  H   UNL     1      23.487  -4.113 -10.759  1.00  0.00     0.211 HD
ENDBRANCH  16  23
BRANCH  17  25
ATOM     25  O   UNL     1      22.776  -7.489 -11.352  1.00  0.00    -0.387 OA
ATOM     26  H   UNL     1      22.270  -6.663 -11.262  1.00  0.00     0.211 HD
ENDBRANCH  17  25
ENDBRANCH   3  12
BRANCH   5  27
ATOM     27  O   UNL     1      28.723  -8.937 -12.497  1.00  0.00    -0.507 OA
ATOM     28  H   UNL     1      27.959  -9.162 -13.054  1.00  0.00     0.293 HD
ENDBRANCH   5  27
BRANCH  10  29
ATOM     29  C   UNL     1      26.248 -10.528  -5.184  1.00  0.00    -0.011 A 
ATOM     30  C   UNL     1      25.185 -11.411  -4.985  1.00  0.00     0.013 A 
ATOM     31  C   UNL     1      26.947 -10.025  -4.084  1.00  0.00     0.013 A 
ATOM     32  C   UNL     1      24.822 -11.790  -3.693  1.00  0.00     0.047 A 
ATOM     33  C   UNL     1      26.584 -10.404  -2.792  1.00  0.00     0.047 A 
ATOM     34  C   UNL     1      25.521 -11.286  -2.595  1.00  0.00     0.115 A 
BRANCH  34  35
ATOM     35  O   UNL     1      25.166 -11.655  -1.335  1.00  0.00    -0.508 OA
ATOM     36  H   UNL     1      24.986 -10.855  -0.812  1.00  0.00     0.293 HD
ENDBRANCH  34  35
ENDBRANCH  10  29
TORSDOF 9
ENDMDL
MODEL 10
REMARK VINA RESULT:    -6.808      4.159      5.387
REMARK INTER + INTRA:          -9.954
REMARK INTER:                  -9.630
REMARK INTRA:                  -0.324
REMARK UNBOUND:                -0.757
REMARK SMILES O=c1c(-c2ccc(O)cc2)coc2c([C@@H]3O[C@H](CO)[C@@H](O)[C@H](O)[C@H]3O)c(O)ccc12
REMARK SMILES IDX 12 1 1 2 14 3 13 4 26 5 30 6 28 7 29 8 2 9 3 10 11 11 15 12
REMARK SMILES IDX 16 13 17 14 24 15 20 16 22 17 18 18 19 19 25 21 21 23 23 25
REMARK SMILES IDX 27 27 4 29 5 30 10 31 6 32 9 33 7 34 8 35
REMARK H PARENT 19 20 25 22 21 24 23 26 27 28 8 36
REMARK INDEX MAP 6 1 8 2 15 3 17 4 18 5 19 6 20 7 21 8 22 9 23 10 24 11 12 12
REMARK INDEX MAP 1 13 14 14 10 15 13 16 11 17 16 18 5 19 43 20 2 21 38 22 4 23
REMARK INDEX MAP 40 24 3 25 39 26 7 27 45 28 25 29 26 30 27 31 28 32 29 33
REMARK INDEX MAP 30 34 9 35 50 36
ROOT
ATOM      1  O   UNL     1      26.856  -8.096  -6.036  1.00  0.00    -0.463 OA
ATOM      2  O   UNL     1      28.305  -6.498  -9.500  1.00  0.00    -0.288 OA
ATOM      3  C   UNL     1      25.764  -9.825  -7.217  1.00  0.00     0.069 A 
ATOM      4  C   UNL     1      26.569  -8.685  -7.240  1.00  0.00     0.147 A 
ATOM      5  C   UNL     1      25.438 -10.468  -8.411  1.00  0.00     0.125 A 
ATOM      6  C   UNL     1      27.045  -8.190  -8.453  1.00  0.00     0.066 A 
ATOM      7  C   UNL     1      25.914  -9.972  -9.625  1.00  0.00     0.047 A 
ATOM      8  C   UNL     1      26.719  -8.832  -9.651  1.00  0.00     0.020 A 
ATOM      9  C   UNL     1      27.891  -6.982  -8.454  1.00  0.00     0.200 A 
ATOM     10  C   UNL     1      28.195  -6.386  -7.124  1.00  0.00     0.065 A 
ATOM     11  C   UNL     1      27.663  -6.984  -6.047  1.00  0.00     0.208 A 
ENDROOT
BRANCH   3  12
ATOM     12  C   UNL     1      25.242 -10.369  -5.902  1.00  0.00     0.188 C 
ATOM     13  O   UNL     1      24.251  -9.457  -5.417  1.00  0.00    -0.362 OA
ATOM     14  C   UNL     1      23.617  -9.913  -4.222  1.00  0.00     0.176 C 
ATOM     15  C   UNL     1      26.365 -10.553  -4.870  1.00  0.00     0.179 C 
ATOM     16  C   UNL     1      24.645 -10.030  -3.095  1.00  0.00     0.177 C 
ATOM     17  C   UNL     1      25.797 -10.948  -3.504  1.00  0.00     0.177 C 
BRANCH  14  18
ATOM     18  C   UNL     1      22.515  -8.915  -3.879  1.00  0.00     0.191 C 
BRANCH  18  19
ATOM     19  O   UNL     1      22.983  -7.610  -4.167  1.00  0.00    -0.394 OA
ATOM     20  H   UNL     1      23.673  -7.395  -3.517  1.00  0.00     0.210 HD
ENDBRANCH  18  19
ENDBRANCH  14  18
BRANCH  15  21
ATOM     21  O   UNL     1      27.239 -11.587  -5.326  1.00  0.00    -0.387 OA
ATOM     22  H   UNL     1      26.691 -12.318  -5.655  1.00  0.00     0.211 HD
ENDBRANCH  15  21
BRANCH  16  23
ATOM     23  O   UNL     1      24.013 -10.559  -1.933  1.00  0.00    -0.388 OA
ATOM     24  H   UNL     1      23.854 -11.507  -2.082  1.00  0.00     0.211 HD
ENDBRANCH  16  23
BRANCH  17  25
ATOM     25  O   UNL     1      26.821 -10.840  -2.514  1.00  0.00    -0.387 OA
ATOM     26  H   UNL     1      26.692 -11.570  -1.884  1.00  0.00     0.211 HD
ENDBRANCH  17  25
ENDBRANCH   3  12
BRANCH   5  27
ATOM     27  O   UNL     1      24.654 -11.581  -8.411  1.00  0.00    -0.507 OA
ATOM     28  H   UNL     1      25.212 -12.365  -8.271  1.00  0.00     0.293 HD
ENDBRANCH   5  27
BRANCH  10  29
ATOM     29  C   UNL     1      29.058  -5.203  -6.979  1.00  0.00    -0.011 A 
ATOM     30  C   UNL     1      28.521  -3.921  -7.112  1.00  0.00     0.013 A 
ATOM     31  C   UNL     1      30.419  -5.359  -6.707  1.00  0.00     0.013 A 
ATOM     32  C   UNL     1      29.340  -2.801  -6.974  1.00  0.00     0.047 A 
ATOM     33  C   UNL     1      31.238  -4.238  -6.569  1.00  0.00     0.047 A 
ATOM     34  C   UNL     1      30.699  -2.959  -6.703  1.00  0.00     0.115 A 
BRANCH  34  35
ATOM     35  O   UNL     1      31.498  -1.866  -6.569  1.00  0.00    -0.508 OA
ATOM     36  H   UNL     1      30.940  -1.070  -6.539  1.00  0.00     0.293 HD
ENDBRANCH  34  35
ENDBRANCH  10  29
TORSDOF 9
ENDMDL
MODEL 11
REMARK VINA RESULT:    -6.620      4.257      5.979
REMARK INTER + INTRA:          -9.700
REMARK INTER:                  -8.560
REMARK INTRA:                  -1.139
REMARK UNBOUND:                -0.757
REMARK SMILES O=c1c(-c2ccc(O)cc2)coc2c([C@@H]3O[C@H](CO)[C@@H](O)[C@H](O)[C@H]3O)c(O)ccc12
REMARK SMILES IDX 12 1 1 2 14 3 13 4 26 5 30 6 28 7 29 8 2 9 3 10 11 11 15 12
REMARK SMILES IDX 16 13 17 14 24 15 20 16 22 17 18 18 19 19 25 21 21 23 23 25
REMARK SMILES IDX 27 27 4 29 5 30 10 31 6 32 9 33 7 34 8 35
REMARK H PARENT 19 20 25 22 21 24 23 26 27 28 8 36
REMARK INDEX MAP 6 1 8 2 15 3 17 4 18 5 19 6 20 7 21 8 22 9 23 10 24 11 12 12
REMARK INDEX MAP 1 13 14 14 10 15 13 16 11 17 16 18 5 19 43 20 2 21 38 22 4 23
REMARK INDEX MAP 40 24 3 25 39 26 7 27 45 28 25 29 26 30 27 31 28 32 29 33
REMARK INDEX MAP 30 34 9 35 50 36
ROOT
ATOM      1  O   UNL     1      26.496  -8.236  -7.795  1.00  0.00    -0.463 OA
ATOM      2  O   UNL     1      29.341  -5.396  -8.490  1.00  0.00    -0.288 OA
ATOM      3  C   UNL     1      27.578  -8.925  -5.812  1.00  0.00     0.069 A 
ATOM      4  C   UNL     1      27.538  -8.076  -6.919  1.00  0.00     0.147 A 
ATOM      5  C   UNL     1      28.615  -8.809  -4.887  1.00  0.00     0.125 A 
ATOM      6  C   UNL     1      28.532  -7.116  -7.099  1.00  0.00     0.066 A 
ATOM      7  C   UNL     1      29.611  -7.849  -5.067  1.00  0.00     0.047 A 
ATOM      8  C   UNL     1      29.573  -6.999  -6.174  1.00  0.00     0.020 A 
ATOM      9  C   UNL     1      28.472  -6.232  -8.278  1.00  0.00     0.200 A 
ATOM     10  C   UNL     1      27.314  -6.426  -9.193  1.00  0.00     0.065 A 
ATOM     11  C   UNL     1      26.438  -7.393  -8.878  1.00  0.00     0.208 A 
ENDROOT
BRANCH   3  12
ATOM     12  C   UNL     1      26.501  -9.972  -5.609  1.00  0.00     0.188 C 
ATOM     13  O   UNL     1      26.103  -9.925  -4.235  1.00  0.00    -0.362 OA
ATOM     14  C   UNL     1      25.021 -10.809  -3.941  1.00  0.00     0.176 C 
ATOM     15  C   UNL     1      26.988 -11.379  -5.988  1.00  0.00     0.179 C 
ATOM     16  C   UNL     1      25.446 -12.258  -4.190  1.00  0.00     0.177 C 
ATOM     17  C   UNL     1      25.945 -12.438  -5.624  1.00  0.00     0.177 C 
BRANCH  14  18
ATOM     18  C   UNL     1      24.623 -10.580  -2.486  1.00  0.00     0.191 C 
BRANCH  18  19
ATOM     19  O   UNL     1      24.990 -11.722  -1.734  1.00  0.00    -0.394 OA
ATOM     20  H   UNL     1      25.360 -11.412  -0.890  1.00  0.00     0.210 HD
ENDBRANCH  18  19
ENDBRANCH  14  18
BRANCH  15  21
ATOM     21  O   UNL     1      27.219 -11.419  -7.396  1.00  0.00    -0.387 OA
ATOM     22  H   UNL     1      27.781 -12.189  -7.586  1.00  0.00     0.211 HD
ENDBRANCH  15  21
BRANCH  16  23
ATOM     23  O   UNL     1      24.333 -13.120  -3.968  1.00  0.00    -0.388 OA
ATOM     24  H   UNL     1      24.670 -13.961  -3.614  1.00  0.00     0.211 HD
ENDBRANCH  16  23
BRANCH  17  25
ATOM     25  O   UNL     1      26.530 -13.737  -5.727  1.00  0.00    -0.387 OA
ATOM     26  H   UNL     1      27.105 -13.734  -6.512  1.00  0.00     0.211 HD
ENDBRANCH  17  25
ENDBRANCH   3  12
BRANCH   5  27
ATOM     27  O   UNL     1      28.673  -9.628  -3.800  1.00  0.00    -0.507 OA
ATOM     28  H   UNL     1      29.535  -9.519  -3.364  1.00  0.00     0.293 HD
ENDBRANCH   5  27
BRANCH  10  29
ATOM     29  C   UNL     1      27.111  -5.586 -10.384  1.00  0.00    -0.011 A 
ATOM     30  C   UNL     1      27.631  -5.982 -11.618  1.00  0.00     0.013 A 
ATOM     31  C   UNL     1      26.398  -4.389 -10.285  1.00  0.00     0.013 A 
ATOM     32  C   UNL     1      27.439  -5.186 -12.747  1.00  0.00     0.047 A 
ATOM     33  C   UNL     1      26.206  -3.593 -11.414  1.00  0.00     0.047 A 
ATOM     34  C   UNL     1      26.726  -3.991 -12.645  1.00  0.00     0.115 A 
BRANCH  34  35
ATOM     35  O   UNL     1      26.540  -3.214 -13.746  1.00  0.00    -0.508 OA
ATOM     36  H   UNL     1      25.874  -3.632 -14.318  1.00  0.00     0.293 HD
ENDBRANCH  34  35
ENDBRANCH  10  29
TORSDOF 9
ENDMDL
MODEL 12
REMARK VINA RESULT:    -6.560      3.164      8.117
REMARK INTER + INTRA:          -9.618
REMARK INTER:                  -8.705
REMARK INTRA:                  -0.914
REMARK UNBOUND:                -0.757
REMARK SMILES O=c1c(-c2ccc(O)cc2)coc2c([C@@H]3O[C@H](CO)[C@@H](O)[C@H](O)[C@H]3O)c(O)ccc12
REMARK SMILES IDX 12 1 1 2 14 3 13 4 26 5 30 6 28 7 29 8 2 9 3 10 11 11 15 12
REMARK SMILES IDX 16 13 17 14 24 15 20 16 22 17 18 18 19 19 25 21 21 23 23 25
REMARK SMILES IDX 27 27 4 29 5 30 10 31 6 32 9 33 7 34 8 35
REMARK H PARENT 19 20 25 22 21 24 23 26 27 28 8 36
REMARK INDEX MAP 6 1 8 2 15 3 17 4 18 5 19 6 20 7 21 8 22 9 23 10 24 11 12 12
REMARK INDEX MAP 1 13 14 14 10 15 13 16 11 17 16 18 5 19 43 20 2 21 38 22 4 23
REMARK INDEX MAP 40 24 3 25 39 26 7 27 45 28 25 29 26 30 27 31 28 32 29 33
REMARK INDEX MAP 30 34 9 35 50 36
ROOT
ATOM      1  O   UNL     1      25.487  -9.351  -8.661  1.00  0.00    -0.463 OA
ATOM      2  O   UNL     1      28.525 -11.256  -6.713  1.00  0.00    -0.288 OA
ATOM      3  C   UNL     1      26.734  -9.277 -10.665  1.00  0.00     0.069 A 
ATOM      4  C   UNL     1      26.647  -9.656  -9.324  1.00  0.00     0.147 A 
ATOM      5  C   UNL     1      27.890  -9.561 -11.391  1.00  0.00     0.125 A 
ATOM      6  C   UNL     1      27.713 -10.315  -8.714  1.00  0.00     0.066 A 
ATOM      7  C   UNL     1      28.957 -10.220 -10.780  1.00  0.00     0.047 A 
ATOM      8  C   UNL     1      28.872 -10.599  -9.440  1.00  0.00     0.020 A 
ATOM      9  C   UNL     1      27.600 -10.702  -7.295  1.00  0.00     0.200 A 
ATOM     10  C   UNL     1      26.317 -10.369  -6.618  1.00  0.00     0.065 A 
ATOM     11  C   UNL     1      25.385  -9.735  -7.346  1.00  0.00     0.208 A 
ENDROOT
BRANCH   3  12
ATOM     12  C   UNL     1      25.580  -8.560 -11.336  1.00  0.00     0.188 C 
ATOM     13  O   UNL     1      25.517  -9.012 -12.693  1.00  0.00    -0.362 OA
ATOM     14  C   UNL     1      24.405  -8.471 -13.406  1.00  0.00     0.176 C 
ATOM     15  C   UNL     1      25.739  -7.033 -11.277  1.00  0.00     0.179 C 
ATOM     16  C   UNL     1      24.527  -6.948 -13.492  1.00  0.00     0.177 C 
ATOM     17  C   UNL     1      24.652  -6.334 -12.097  1.00  0.00     0.177 C 
BRANCH  14  18
ATOM     18  C   UNL     1      24.390  -9.115 -14.789  1.00  0.00     0.191 C 
BRANCH  18  19
ATOM     19  O   UNL     1      25.714  -9.489 -15.126  1.00  0.00    -0.394 OA
ATOM     20  H   UNL     1      26.074  -9.999 -14.381  1.00  0.00     0.210 HD
ENDBRANCH  18  19
ENDBRANCH  14  18
BRANCH  15  21
ATOM     21  O   UNL     1      25.634  -6.616  -9.915  1.00  0.00    -0.387 OA
ATOM     22  H   UNL     1      26.190  -7.205  -9.378  1.00  0.00     0.211 HD
ENDBRANCH  15  21
BRANCH  16  23
ATOM     23  O   UNL     1      23.372  -6.419 -14.136  1.00  0.00    -0.388 OA
ATOM     24  H   UNL     1      23.521  -6.455 -15.097  1.00  0.00     0.211 HD
ENDBRANCH  16  23
BRANCH  17  25
ATOM     25  O   UNL     1      24.984  -4.954 -12.250  1.00  0.00    -0.387 OA
ATOM     26  H   UNL     1      25.862  -4.822 -11.852  1.00  0.00     0.211 HD
ENDBRANCH  17  25
ENDBRANCH   3  12
BRANCH   5  27
ATOM     27  O   UNL     1      27.996  -9.200 -12.700  1.00  0.00    -0.507 OA
ATOM     28  H   UNL     1      28.500  -8.371 -12.763  1.00  0.00     0.293 HD
ENDBRANCH   5  27
BRANCH  10  29
ATOM     29  C   UNL     1      26.058 -10.734  -5.216  1.00  0.00    -0.011 A 
ATOM     30  C   UNL     1      25.180 -11.777  -4.913  1.00  0.00     0.013 A 
ATOM     31  C   UNL     1      26.690 -10.038  -4.183  1.00  0.00     0.013 A 
ATOM     32  C   UNL     1      24.935 -12.123  -3.584  1.00  0.00     0.047 A 
ATOM     33  C   UNL     1      26.445 -10.384  -2.854  1.00  0.00     0.047 A 
ATOM     34  C   UNL     1      25.567 -11.426  -2.554  1.00  0.00     0.115 A 
BRANCH  34  35
ATOM     35  O   UNL     1      25.327 -11.763  -1.257  1.00  0.00    -0.508 OA
ATOM     36  H   UNL     1      26.172 -11.977  -0.826  1.00  0.00     0.293 HD
ENDBRANCH  34  35
ENDBRANCH  10  29
TORSDOF 9
ENDMDL
MODEL 13
REMARK VINA RESULT:    -6.485      2.113      3.112
REMARK INTER + INTRA:          -9.517
REMARK INTER:                  -9.398
REMARK INTRA:                  -0.119
REMARK UNBOUND:                -0.757
REMARK SMILES O=c1c(-c2ccc(O)cc2)coc2c([C@@H]3O[C@H](CO)[C@@H](O)[C@H](O)[C@H]3O)c(O)ccc12
REMARK SMILES IDX 12 1 1 2 14 3 13 4 26 5 30 6 28 7 29 8 2 9 3 10 11 11 15 12
REMARK SMILES IDX 16 13 17 14 24 15 20 16 22 17 18 18 19 19 25 21 21 23 23 25
REMARK SMILES IDX 27 27 4 29 5 30 10 31 6 32 9 33 7 34 8 35
REMARK H PARENT 19 20 25 22 21 24 23 26 27 28 8 36
REMARK INDEX MAP 6 1 8 2 15 3 17 4 18 5 19 6 20 7 21 8 22 9 23 10 24 11 12 12
REMARK INDEX MAP 1 13 14 14 10 15 13 16 11 17 16 18 5 19 43 20 2 21 38 22 4 23
REMARK INDEX MAP 40 24 3 25 39 26 7 27 45 28 25 29 26 30 27 31 28 32 29 33
REMARK INDEX MAP 30 34 9 35 50 36
ROOT
ATOM      1  O   UNL     1      28.828 -10.597  -6.760  1.00  0.00    -0.463 OA
ATOM      2  O   UNL     1      31.851  -8.055  -7.783  1.00  0.00    -0.288 OA
ATOM      3  C   UNL     1      27.540  -8.817  -5.893  1.00  0.00     0.069 A 
ATOM      4  C   UNL     1      28.713  -9.254  -6.511  1.00  0.00     0.147 A 
ATOM      5  C   UNL     1      27.367  -7.462  -5.614  1.00  0.00     0.125 A 
ATOM      6  C   UNL     1      29.708  -8.338  -6.848  1.00  0.00     0.066 A 
ATOM      7  C   UNL     1      28.363  -6.545  -5.951  1.00  0.00     0.047 A 
ATOM      8  C   UNL     1      29.537  -6.980  -6.569  1.00  0.00     0.020 A 
ATOM      9  C   UNL     1      30.941  -8.822  -7.498  1.00  0.00     0.200 A 
ATOM     10  C   UNL     1      31.016 -10.285  -7.767  1.00  0.00     0.065 A 
ATOM     11  C   UNL     1      29.971 -11.034  -7.384  1.00  0.00     0.208 A 
ENDROOT
BRANCH   3  12
ATOM     12  C   UNL     1      26.454  -9.807  -5.523  1.00  0.00     0.188 C 
ATOM     13  O   UNL     1      26.634 -10.157  -4.146  1.00  0.00    -0.362 OA
ATOM     14  C   UNL     1      25.609 -11.019  -3.654  1.00  0.00     0.176 C 
ATOM     15  C   UNL     1      26.490 -11.060  -6.412  1.00  0.00     0.179 C 
ATOM     16  C   UNL     1      25.631 -12.346  -4.415  1.00  0.00     0.177 C 
ATOM     17  C   UNL     1      25.493 -12.112  -5.920  1.00  0.00     0.177 C 
BRANCH  14  18
ATOM     18  C   UNL     1      25.855 -11.219  -2.162  1.00  0.00     0.191 C 
BRANCH  18  19
ATOM     19  O   UNL     1      24.641 -11.624  -1.556  1.00  0.00    -0.394 OA
ATOM     20  H   UNL     1      24.416 -12.503  -1.906  1.00  0.00     0.210 HD
ENDBRANCH  18  19
ENDBRANCH  14  18
BRANCH  15  21
ATOM     21  O   UNL     1      26.146 -10.682  -7.746  1.00  0.00    -0.387 OA
ATOM     22  H   UNL     1      26.591 -11.295  -8.354  1.00  0.00     0.211 HD
ENDBRANCH  15  21
BRANCH  16  23
ATOM     23  O   UNL     1      24.553 -13.164  -3.967  1.00  0.00    -0.388 OA
ATOM     24  H   UNL     1      24.930 -13.976  -3.585  1.00  0.00     0.211 HD
ENDBRANCH  16  23
BRANCH  17  25
ATOM     25  O   UNL     1      25.744 -13.352  -6.583  1.00  0.00    -0.387 OA
ATOM     26  H   UNL     1      25.510 -13.231  -7.520  1.00  0.00     0.211 HD
ENDBRANCH  17  25
ENDBRANCH   3  12
BRANCH   5  27
ATOM     27  O   UNL     1      26.231  -7.015  -5.012  1.00  0.00    -0.507 OA
ATOM     28  H   UNL     1      25.544  -6.878  -5.686  1.00  0.00     0.293 HD
ENDBRANCH   5  27
BRANCH  10  29
ATOM     29  C   UNL     1      32.171 -10.894  -8.445  1.00  0.00    -0.011 A 
ATOM     30  C   UNL     1      33.285 -11.298  -7.706  1.00  0.00     0.013 A 
ATOM     31  C   UNL     1      32.158 -11.071  -9.830  1.00  0.00     0.013 A 
ATOM     32  C   UNL     1      34.380 -11.875  -8.348  1.00  0.00     0.047 A 
ATOM     33  C   UNL     1      33.253 -11.649 -10.473  1.00  0.00     0.047 A 
ATOM     34  C   UNL     1      34.365 -12.051  -9.732  1.00  0.00     0.115 A 
BRANCH  34  35
ATOM     35  O   UNL     1      35.433 -12.614 -10.359  1.00  0.00    -0.508 OA
ATOM     36  H   UNL     1      36.012 -11.906 -10.691  1.00  0.00     0.293 HD
ENDBRANCH  34  35
ENDBRANCH  10  29
TORSDOF 9
ENDMDL
MODEL 14
REMARK VINA RESULT:    -6.468      3.017      4.125
REMARK INTER + INTRA:          -9.494
REMARK INTER:                  -8.997
REMARK INTRA:                  -0.496
REMARK UNBOUND:                -0.757
REMARK SMILES O=c1c(-c2ccc(O)cc2)coc2c([C@@H]3O[C@H](CO)[C@@H](O)[C@H](O)[C@H]3O)c(O)ccc12
REMARK SMILES IDX 12 1 1 2 14 3 13 4 26 5 30 6 28 7 29 8 2 9 3 10 11 11 15 12
REMARK SMILES IDX 16 13 17 14 24 15 20 16 22 17 18 18 19 19 25 21 21 23 23 25
REMARK SMILES IDX 27 27 4 29 5 30 10 31 6 32 9 33 7 34 8 35
REMARK H PARENT 19 20 25 22 21 24 23 26 27 28 8 36
REMARK INDEX MAP 6 1 8 2 15 3 17 4 18 5 19 6 20 7 21 8 22 9 23 10 24 11 12 12
REMARK INDEX MAP 1 13 14 14 10 15 13 16 11 17 16 18 5 19 43 20 2 21 38 22 4 23
REMARK INDEX MAP 40 24 3 25 39 26 7 27 45 28 25 29 26 30 27 31 28 32 29 33
REMARK INDEX MAP 30 34 9 35 50 36
ROOT
ATOM      1  O   UNL     1      27.578  -9.081  -6.389  1.00  0.00    -0.463 OA
ATOM      2  O   UNL     1      30.171  -8.660  -9.511  1.00  0.00    -0.288 OA
ATOM      3  C   UNL     1      26.065 -10.302  -7.729  1.00  0.00     0.069 A 
ATOM      4  C   UNL     1      27.279  -9.625  -7.612  1.00  0.00     0.147 A 
ATOM      5  C   UNL     1      25.707 -10.877  -8.948  1.00  0.00     0.125 A 
ATOM      6  C   UNL     1      28.131  -9.522  -8.710  1.00  0.00     0.066 A 
ATOM      7  C   UNL     1      26.559 -10.773 -10.048  1.00  0.00     0.047 A 
ATOM      8  C   UNL     1      27.774 -10.096  -9.933  1.00  0.00     0.020 A 
ATOM      9  C   UNL     1      29.408  -8.798  -8.564  1.00  0.00     0.200 A 
ATOM     10  C   UNL     1      29.702  -8.240  -7.215  1.00  0.00     0.065 A 
ATOM     11  C   UNL     1      28.779  -8.427  -6.259  1.00  0.00     0.208 A 
ENDROOT
BRANCH   3  12
ATOM     12  C   UNL     1      25.132 -10.418  -6.540  1.00  0.00     0.188 C 
ATOM     13  O   UNL     1      25.046  -9.127  -5.928  1.00  0.00    -0.362 OA
ATOM     14  C   UNL     1      24.118  -9.089  -4.844  1.00  0.00     0.176 C 
ATOM     15  C   UNL     1      25.618 -11.469  -5.529  1.00  0.00     0.179 C 
ATOM     16  C   UNL     1      24.574 -10.034  -3.730  1.00  0.00     0.177 C 
ATOM     17  C   UNL     1      24.754 -11.455  -4.265  1.00  0.00     0.177 C 
BRANCH  14  18
ATOM     18  C   UNL     1      24.038  -7.644  -4.360  1.00  0.00     0.191 C 
BRANCH  18  19
ATOM     19  O   UNL     1      22.701  -7.370  -3.981  1.00  0.00    -0.394 OA
ATOM     20  H   UNL     1      22.361  -6.683  -4.579  1.00  0.00     0.210 HD
ENDBRANCH  18  19
ENDBRANCH  14  18
BRANCH  15  21
ATOM     21  O   UNL     1      25.533 -12.759  -6.135  1.00  0.00    -0.387 OA
ATOM     22  H   UNL     1      26.160 -12.782  -6.878  1.00  0.00     0.211 HD
ENDBRANCH  15  21
BRANCH  16  23
ATOM     23  O   UNL     1      23.599 -10.043  -2.691  1.00  0.00    -0.388 OA
ATOM     24  H   UNL     1      23.884  -9.415  -2.006  1.00  0.00     0.211 HD
ENDBRANCH  16  23
BRANCH  17  25
ATOM     25  O   UNL     1      25.388 -12.232  -3.248  1.00  0.00    -0.387 OA
ATOM     26  H   UNL     1      25.122 -11.858  -2.390  1.00  0.00     0.211 HD
ENDBRANCH  17  25
ENDBRANCH   3  12
BRANCH   5  27
ATOM     27  O   UNL     1      24.526 -11.542  -9.085  1.00  0.00    -0.507 OA
ATOM     28  H   UNL     1      23.961 -11.351  -8.318  1.00  0.00     0.293 HD
ENDBRANCH   5  27
BRANCH  10  29
ATOM     29  C   UNL     1      30.957  -7.530  -6.922  1.00  0.00    -0.011 A 
ATOM     30  C   UNL     1      30.999  -6.135  -6.962  1.00  0.00     0.013 A 
ATOM     31  C   UNL     1      32.110  -8.250  -6.601  1.00  0.00     0.013 A 
ATOM     32  C   UNL     1      32.189  -5.462  -6.684  1.00  0.00     0.047 A 
ATOM     33  C   UNL     1      33.300  -7.577  -6.323  1.00  0.00     0.047 A 
ATOM     34  C   UNL     1      33.340  -6.183  -6.364  1.00  0.00     0.115 A 
BRANCH  34  35
ATOM     35  O   UNL     1      34.501  -5.527  -6.094  1.00  0.00    -0.508 OA
ATOM     36  H   UNL     1      34.445  -4.626  -6.457  1.00  0.00     0.293 HD
ENDBRANCH  34  35
ENDBRANCH  10  29
TORSDOF 9
ENDMDL
MODEL 15
REMARK VINA RESULT:    -6.460      2.342      8.465
REMARK INTER + INTRA:          -9.483
REMARK INTER:                  -8.325
REMARK INTRA:                  -1.158
REMARK UNBOUND:                -0.757
REMARK SMILES O=c1c(-c2ccc(O)cc2)coc2c([C@@H]3O[C@H](CO)[C@@H](O)[C@H](O)[C@H]3O)c(O)ccc12
REMARK SMILES IDX 12 1 1 2 14 3 13 4 26 5 30 6 28 7 29 8 2 9 3 10 11 11 15 12
REMARK SMILES IDX 16 13 17 14 24 15 20 16 22 17 18 18 19 19 25 21 21 23 23 25
REMARK SMILES IDX 27 27 4 29 5 30 10 31 6 32 9 33 7 34 8 35
REMARK H PARENT 19 20 25 22 21 24 23 26 27 28 8 36
REMARK INDEX MAP 6 1 8 2 15 3 17 4 18 5 19 6 20 7 21 8 22 9 23 10 24 11 12 12
REMARK INDEX MAP 1 13 14 14 10 15 13 16 11 17 16 18 5 19 43 20 2 21 38 22 4 23
REMARK INDEX MAP 40 24 3 25 39 26 7 27 45 28 25 29 26 30 27 31 28 32 29 33
REMARK INDEX MAP 30 34 9 35 50 36
ROOT
ATOM      1  O   UNL     1      28.549 -11.060  -7.877  1.00  0.00    -0.463 OA
ATOM      2  O   UNL     1      27.847  -7.677  -5.705  1.00  0.00    -0.288 OA
ATOM      3  C   UNL     1      30.047  -9.912  -9.297  1.00  0.00     0.069 A 
ATOM      4  C   UNL     1      29.182  -9.887  -8.202  1.00  0.00     0.147 A 
ATOM      5  C   UNL     1      30.718  -8.750  -9.676  1.00  0.00     0.125 A 
ATOM      6  C   UNL     1      28.989  -8.705  -7.490  1.00  0.00     0.066 A 
ATOM      7  C   UNL     1      30.525  -7.566  -8.963  1.00  0.00     0.047 A 
ATOM      8  C   UNL     1      29.660  -7.539  -7.868  1.00  0.00     0.020 A 
ATOM      9  C   UNL     1      28.067  -8.701  -6.339  1.00  0.00     0.200 A 
ATOM     10  C   UNL     1      27.416  -9.999  -6.008  1.00  0.00     0.065 A 
ATOM     11  C   UNL     1      27.709 -11.049  -6.790  1.00  0.00     0.208 A 
ENDROOT
BRANCH   3  12
ATOM     12  C   UNL     1      30.262 -11.194 -10.077  1.00  0.00     0.188 C 
ATOM     13  O   UNL     1      31.668 -11.332 -10.308  1.00  0.00    -0.362 OA
ATOM     14  C   UNL     1      32.004 -12.557 -10.958  1.00  0.00     0.176 C 
ATOM     15  C   UNL     1      29.488 -11.196 -11.404  1.00  0.00     0.179 C 
ATOM     16  C   UNL     1      31.359 -12.609 -12.345  1.00  0.00     0.177 C 
ATOM     17  C   UNL     1      29.845 -12.423 -12.246  1.00  0.00     0.177 C 
BRANCH  14  18
ATOM     18  C   UNL     1      33.526 -12.630 -11.041  1.00  0.00     0.191 C 
BRANCH  18  19
ATOM     19  O   UNL     1      33.913 -13.992 -11.038  1.00  0.00    -0.394 OA
ATOM     20  H   UNL     1      33.108 -14.526 -11.152  1.00  0.00     0.210 HD
ENDBRANCH  18  19
ENDBRANCH  14  18
BRANCH  15  21
ATOM     21  O   UNL     1      28.089 -11.220 -11.118  1.00  0.00    -0.387 OA
ATOM     22  H   UNL     1      27.950 -11.809 -10.358  1.00  0.00     0.211 HD
ENDBRANCH  15  21
BRANCH  16  23
ATOM     23  O   UNL     1      31.640 -13.868 -12.948  1.00  0.00    -0.388 OA
ATOM     24  H   UNL     1      31.693 -14.535 -12.242  1.00  0.00     0.211 HD
ENDBRANCH  16  23
BRANCH  17  25
ATOM     25  O   UNL     1      29.334 -12.257 -13.569  1.00  0.00    -0.387 OA
ATOM     26  H   UNL     1      29.523 -11.342 -13.840  1.00  0.00     0.211 HD
ENDBRANCH  17  25
ENDBRANCH   3  12
BRANCH   5  27
ATOM     27  O   UNL     1      31.567  -8.752 -10.741  1.00  0.00    -0.507 OA
ATOM     28  H   UNL     1      31.686  -7.840 -11.055  1.00  0.00     0.293 HD
ENDBRANCH   5  27
BRANCH  10  29
ATOM     29  C   UNL     1      26.505 -10.144  -4.861  1.00  0.00    -0.011 A 
ATOM     30  C   UNL     1      25.140  -9.892  -5.013  1.00  0.00     0.013 A 
ATOM     31  C   UNL     1      27.003 -10.536  -3.616  1.00  0.00     0.013 A 
ATOM     32  C   UNL     1      24.277 -10.030  -3.926  1.00  0.00     0.047 A 
ATOM     33  C   UNL     1      26.140 -10.674  -2.529  1.00  0.00     0.047 A 
ATOM     34  C   UNL     1      24.777 -10.421  -2.683  1.00  0.00     0.115 A 
BRANCH  34  35
ATOM     35  O   UNL     1      23.935 -10.554  -1.623  1.00  0.00    -0.508 OA
ATOM     36  H   UNL     1      24.462 -10.612  -0.808  1.00  0.00     0.293 HD
ENDBRANCH  34  35
ENDBRANCH  10  29
TORSDOF 9
ENDMDL
MODEL 16
REMARK VINA RESULT:    -6.459      1.979      2.895
REMARK INTER + INTRA:          -9.482
REMARK INTER:                  -9.109
REMARK INTRA:                  -0.374
REMARK UNBOUND:                -0.757
REMARK SMILES O=c1c(-c2ccc(O)cc2)coc2c([C@@H]3O[C@H](CO)[C@@H](O)[C@H](O)[C@H]3O)c(O)ccc12
REMARK SMILES IDX 12 1 1 2 14 3 13 4 26 5 30 6 28 7 29 8 2 9 3 10 11 11 15 12
REMARK SMILES IDX 16 13 17 14 24 15 20 16 22 17 18 18 19 19 25 21 21 23 23 25
REMARK SMILES IDX 27 27 4 29 5 30 10 31 6 32 9 33 7 34 8 35
REMARK H PARENT 19 20 25 22 21 24 23 26 27 28 8 36
REMARK INDEX MAP 6 1 8 2 15 3 17 4 18 5 19 6 20 7 21 8 22 9 23 10 24 11 12 12
REMARK INDEX MAP 1 13 14 14 10 15 13 16 11 17 16 18 5 19 43 20 2 21 38 22 4 23
REMARK INDEX MAP 40 24 3 25 39 26 7 27 45 28 25 29 26 30 27 31 28 32 29 33
REMARK INDEX MAP 30 34 9 35 50 36
ROOT
ATOM      1  O   UNL     1      27.863 -10.401  -6.849  1.00  0.00    -0.463 OA
ATOM      2  O   UNL     1      29.957  -8.555  -9.825  1.00  0.00    -0.288 OA
ATOM      3  C   UNL     1      26.609  -8.444  -6.431  1.00  0.00     0.069 A 
ATOM      4  C   UNL     1      27.599  -9.095  -7.170  1.00  0.00     0.147 A 
ATOM      5  C   UNL     1      26.297  -7.114  -6.712  1.00  0.00     0.125 A 
ATOM      6  C   UNL     1      28.274  -8.417  -8.183  1.00  0.00     0.066 A 
ATOM      7  C   UNL     1      26.974  -6.435  -7.726  1.00  0.00     0.047 A 
ATOM      8  C   UNL     1      27.964  -7.084  -8.465  1.00  0.00     0.020 A 
ATOM      9  C   UNL     1      29.320  -9.123  -8.947  1.00  0.00     0.200 A 
ATOM     10  C   UNL     1      29.560 -10.546  -8.580  1.00  0.00     0.065 A 
ATOM     11  C   UNL     1      28.824 -11.056  -7.581  1.00  0.00     0.208 A 
ENDROOT
BRANCH   3  12
ATOM     12  C   UNL     1      25.871  -9.174  -5.327  1.00  0.00     0.188 C 
ATOM     13  O   UNL     1      26.827  -9.519  -4.319  1.00  0.00    -0.362 OA
ATOM     14  C   UNL     1      26.230 -10.134  -3.177  1.00  0.00     0.176 C 
ATOM     15  C   UNL     1      25.151 -10.428  -5.848  1.00  0.00     0.179 C 
ATOM     16  C   UNL     1      25.570 -11.455  -3.578  1.00  0.00     0.177 C 
ATOM     17  C   UNL     1      24.549 -11.235  -4.695  1.00  0.00     0.177 C 
BRANCH  14  18
ATOM     18  C   UNL     1      27.331 -10.344  -2.142  1.00  0.00     0.191 C 
BRANCH  18  19
ATOM     19  O   UNL     1      28.520  -9.742  -2.621  1.00  0.00    -0.394 OA
ATOM     20  H   UNL     1      28.484  -9.751  -3.592  1.00  0.00     0.210 HD
ENDBRANCH  18  19
ENDBRANCH  14  18
BRANCH  15  21
ATOM     21  O   UNL     1      24.102 -10.020  -6.727  1.00  0.00    -0.387 OA
ATOM     22  H   UNL     1      24.189 -10.526  -7.552  1.00  0.00     0.211 HD
ENDBRANCH  15  21
BRANCH  16  23
ATOM     23  O   UNL     1      24.914 -12.017  -2.446  1.00  0.00    -0.388 OA
ATOM     24  H   UNL     1      25.590 -12.425  -1.877  1.00  0.00     0.211 HD
ENDBRANCH  16  23
BRANCH  17  25
ATOM     25  O   UNL     1      24.138 -12.515  -5.175  1.00  0.00    -0.387 OA
ATOM     26  H   UNL     1      23.347 -12.773  -4.670  1.00  0.00     0.211 HD
ENDBRANCH  17  25
ENDBRANCH   3  12
BRANCH   5  27
ATOM     27  O   UNL     1      25.335  -6.460  -6.004  1.00  0.00    -0.507 OA
ATOM     28  H   UNL     1      24.554  -7.033  -5.922  1.00  0.00     0.293 HD
ENDBRANCH   5  27
BRANCH  10  29
ATOM     29  C   UNL     1      30.546 -11.377  -9.289  1.00  0.00    -0.011 A 
ATOM     30  C   UNL     1      30.205 -11.998 -10.492  1.00  0.00     0.013 A 
ATOM     31  C   UNL     1      31.828 -11.548  -8.760  1.00  0.00     0.013 A 
ATOM     32  C   UNL     1      31.140 -12.786 -11.163  1.00  0.00     0.047 A 
ATOM     33  C   UNL     1      32.763 -12.336  -9.431  1.00  0.00     0.047 A 
ATOM     34  C   UNL     1      32.419 -12.955 -10.633  1.00  0.00     0.115 A 
BRANCH  34  35
ATOM     35  O   UNL     1      33.331 -13.725 -11.288  1.00  0.00    -0.508 OA
ATOM     36  H   UNL     1      34.156 -13.741 -10.773  1.00  0.00     0.293 HD
ENDBRANCH  34  35
ENDBRANCH  10  29
TORSDOF 9
ENDMDL
MODEL 17
REMARK VINA RESULT:    -6.288      2.411      4.142
REMARK INTER + INTRA:          -9.251
REMARK INTER:                  -8.141
REMARK INTRA:                  -1.110
REMARK UNBOUND:                -0.757
REMARK SMILES O=c1c(-c2ccc(O)cc2)coc2c([C@@H]3O[C@H](CO)[C@@H](O)[C@H](O)[C@H]3O)c(O)ccc12
REMARK SMILES IDX 12 1 1 2 14 3 13 4 26 5 30 6 28 7 29 8 2 9 3 10 11 11 15 12
REMARK SMILES IDX 16 13 17 14 24 15 20 16 22 17 18 18 19 19 25 21 21 23 23 25
REMARK SMILES IDX 27 27 4 29 5 30 10 31 6 32 9 33 7 34 8 35
REMARK H PARENT 19 20 25 22 21 24 23 26 27 28 8 36
REMARK INDEX MAP 6 1 8 2 15 3 17 4 18 5 19 6 20 7 21 8 22 9 23 10 24 11 12 12
REMARK INDEX MAP 1 13 14 14 10 15 13 16 11 17 16 18 5 19 43 20 2 21 38 22 4 23
REMARK INDEX MAP 40 24 3 25 39 26 7 27 45 28 25 29 26 30 27 31 28 32 29 33
REMARK INDEX MAP 30 34 9 35 50 36
ROOT
ATOM      1  O   UNL     1      27.616 -10.295  -8.549  1.00  0.00    -0.463 OA
ATOM      2  O   UNL     1      31.479  -9.930  -9.810  1.00  0.00    -0.288 OA
ATOM      3  C   UNL     1      28.142  -9.331  -6.458  1.00  0.00     0.069 A 
ATOM      4  C   UNL     1      28.561  -9.741  -7.725  1.00  0.00     0.147 A 
ATOM      5  C   UNL     1      29.058  -8.761  -5.575  1.00  0.00     0.125 A 
ATOM      6  C   UNL     1      29.892  -9.581  -8.106  1.00  0.00     0.066 A 
ATOM      7  C   UNL     1      30.391  -8.602  -5.956  1.00  0.00     0.047 A 
ATOM      8  C   UNL     1      30.812  -9.011  -7.222  1.00  0.00     0.020 A 
ATOM      9  C   UNL     1      30.313 -10.025  -9.448  1.00  0.00     0.200 A 
ATOM     10  C   UNL     1      29.252 -10.603 -10.318  1.00  0.00     0.065 A 
ATOM     11  C   UNL     1      28.015 -10.685  -9.804  1.00  0.00     0.208 A 
ENDROOT
BRANCH   3  12
ATOM     12  C   UNL     1      26.696  -9.502  -6.036  1.00  0.00     0.188 C 
ATOM     13  O   UNL     1      26.256  -8.259  -5.477  1.00  0.00    -0.362 OA
ATOM     14  C   UNL     1      24.873  -8.269  -5.125  1.00  0.00     0.176 C 
ATOM     15  C   UNL     1      26.524 -10.646  -5.024  1.00  0.00     0.179 C 
ATOM     16  C   UNL     1      24.616  -9.315  -4.038  1.00  0.00     0.177 C 
ATOM     17  C   UNL     1      25.090 -10.696  -4.491  1.00  0.00     0.177 C 
BRANCH  14  18
ATOM     18  C   UNL     1      24.511  -6.864  -4.653  1.00  0.00     0.191 C 
BRANCH  18  19
ATOM     19  O   UNL     1      23.099  -6.751  -4.618  1.00  0.00    -0.394 OA
ATOM     20  H   UNL     1      22.818  -6.323  -5.444  1.00  0.00     0.210 HD
ENDBRANCH  18  19
ENDBRANCH  14  18
BRANCH  15  21
ATOM     21  O   UNL     1      26.820 -11.881  -5.677  1.00  0.00    -0.387 OA
ATOM     22  H   UNL     1      27.784 -11.999  -5.671  1.00  0.00     0.211 HD
ENDBRANCH  15  21
BRANCH  16  23
ATOM     23  O   UNL     1      23.221  -9.366  -3.754  1.00  0.00    -0.388 OA
ATOM     24  H   UNL     1      22.905  -8.454  -3.630  1.00  0.00     0.211 HD
ENDBRANCH  16  23
BRANCH  17  25
ATOM     25  O   UNL     1      25.031 -11.573  -3.365  1.00  0.00    -0.387 OA
ATOM     26  H   UNL     1      25.722 -12.247  -3.488  1.00  0.00     0.211 HD
ENDBRANCH  17  25
ENDBRANCH   3  12
BRANCH   5  27
ATOM     27  O   UNL     1      28.671  -8.354  -4.335  1.00  0.00    -0.507 OA
ATOM     28  H   UNL     1      28.642  -7.383  -4.311  1.00  0.00     0.293 HD
ENDBRANCH   5  27
BRANCH  10  29
ATOM     29  C   UNL     1      29.528 -11.048 -11.693  1.00  0.00    -0.011 A 
ATOM     30  C   UNL     1      29.452 -10.142 -12.752  1.00  0.00     0.013 A 
ATOM     31  C   UNL     1      29.868 -12.380 -11.943  1.00  0.00     0.013 A 
ATOM     32  C   UNL     1      29.713 -10.564 -14.056  1.00  0.00     0.047 A 
ATOM     33  C   UNL     1      30.130 -12.802 -13.246  1.00  0.00     0.047 A 
ATOM     34  C   UNL     1      30.053 -11.895 -14.303  1.00  0.00     0.115 A 
BRANCH  34  35
ATOM     35  O   UNL     1      30.307 -12.307 -15.574  1.00  0.00    -0.508 OA
ATOM     36  H   UNL     1      30.811 -13.139 -15.541  1.00  0.00     0.293 HD
ENDBRANCH  34  35
ENDBRANCH  10  29
TORSDOF 9
ENDMDL
MODEL 18
REMARK VINA RESULT:    -6.166      4.158      8.707
REMARK INTER + INTRA:          -9.086
REMARK INTER:                  -7.938
REMARK INTRA:                  -1.148
REMARK UNBOUND:                -0.757
REMARK SMILES O=c1c(-c2ccc(O)cc2)coc2c([C@@H]3O[C@H](CO)[C@@H](O)[C@H](O)[C@H]3O)c(O)ccc12
REMARK SMILES IDX 12 1 1 2 14 3 13 4 26 5 30 6 28 7 29 8 2 9 3 10 11 11 15 12
REMARK SMILES IDX 16 13 17 14 24 15 20 16 22 17 18 18 19 19 25 21 21 23 23 25
REMARK SMILES IDX 27 27 4 29 5 30 10 31 6 32 9 33 7 34 8 35
REMARK H PARENT 19 20 25 22 21 24 23 26 27 28 8 36
REMARK INDEX MAP 6 1 8 2 15 3 17 4 18 5 19 6 20 7 21 8 22 9 23 10 24 11 12 12
REMARK INDEX MAP 1 13 14 14 10 15 13 16 11 17 16 18 5 19 43 20 2 21 38 22 4 23
REMARK INDEX MAP 40 24 3 25 39 26 7 27 45 28 25 29 26 30 27 31 28 32 29 33
REMARK INDEX MAP 30 34 9 35 50 36
ROOT
ATOM      1  O   UNL     1      26.018  -8.912  -8.607  1.00  0.00    -0.463 OA
ATOM      2  O   UNL     1      26.343  -6.692  -5.198  1.00  0.00    -0.288 OA
ATOM      3  C   UNL     1      26.595  -7.054  -9.946  1.00  0.00     0.069 A 
ATOM      4  C   UNL     1      26.371  -7.589  -8.676  1.00  0.00     0.147 A 
ATOM      5  C   UNL     1      26.957  -5.714 -10.080  1.00  0.00     0.125 A 
ATOM      6  C   UNL     1      26.508  -6.785  -7.546  1.00  0.00     0.066 A 
ATOM      7  C   UNL     1      27.093  -4.909  -8.948  1.00  0.00     0.047 A 
ATOM      8  C   UNL     1      26.869  -5.442  -7.677  1.00  0.00     0.020 A 
ATOM      9  C   UNL     1      26.263  -7.370  -6.214  1.00  0.00     0.200 A 
ATOM     10  C   UNL     1      25.901  -8.814  -6.182  1.00  0.00     0.065 A 
ATOM     11  C   UNL     1      25.813  -9.451  -7.360  1.00  0.00     0.208 A 
ENDROOT
BRANCH   3  12
ATOM     12  C   UNL     1      26.448  -7.921 -11.181  1.00  0.00     0.188 C 
ATOM     13  O   UNL     1      27.585  -7.683 -12.017  1.00  0.00    -0.362 OA
ATOM     14  C   UNL     1      27.605  -8.517 -13.175  1.00  0.00     0.176 C 
ATOM     15  C   UNL     1      25.144  -7.627 -11.937  1.00  0.00     0.179 C 
ATOM     16  C   UNL     1      26.388  -8.223 -14.054  1.00  0.00     0.177 C 
ATOM     17  C   UNL     1      25.091  -8.394 -13.261  1.00  0.00     0.177 C 
BRANCH  14  18
ATOM     18  C   UNL     1      28.913  -8.246 -13.913  1.00  0.00     0.191 C 
BRANCH  18  19
ATOM     19  O   UNL     1      29.334  -9.445 -14.538  1.00  0.00    -0.394 OA
ATOM     20  H   UNL     1      30.306  -9.438 -14.562  1.00  0.00     0.210 HD
ENDBRANCH  18  19
ENDBRANCH  14  18
BRANCH  15  21
ATOM     21  O   UNL     1      24.042  -8.031 -11.123  1.00  0.00    -0.387 OA
ATOM     22  H   UNL     1      23.429  -7.280 -11.055  1.00  0.00     0.211 HD
ENDBRANCH  15  21
BRANCH  16  23
ATOM     23  O   UNL     1      26.381  -9.116 -15.164  1.00  0.00    -0.388 OA
ATOM     24  H   UNL     1      25.618  -9.711 -15.067  1.00  0.00     0.211 HD
ENDBRANCH  16  23
BRANCH  17  25
ATOM     25  O   UNL     1      24.017  -7.894 -14.059  1.00  0.00    -0.387 OA
ATOM     26  H   UNL     1      24.392  -7.632 -14.917  1.00  0.00     0.211 HD
ENDBRANCH  17  25
ENDBRANCH   3  12
BRANCH   5  27
ATOM     27  O   UNL     1      27.180  -5.172 -11.309  1.00  0.00    -0.507 OA
ATOM     28  H   UNL     1      28.135  -5.169 -11.488  1.00  0.00     0.293 HD
ENDBRANCH   5  27
BRANCH  10  29
ATOM     29  C   UNL     1      25.668  -9.532  -4.919  1.00  0.00    -0.011 A 
ATOM     30  C   UNL     1      24.369  -9.693  -4.432  1.00  0.00     0.013 A 
ATOM     31  C   UNL     1      26.747 -10.056  -4.202  1.00  0.00     0.013 A 
ATOM     32  C   UNL     1      24.149 -10.373  -3.235  1.00  0.00     0.047 A 
ATOM     33  C   UNL     1      26.527 -10.736  -3.004  1.00  0.00     0.047 A 
ATOM     34  C   UNL     1      25.228 -10.895  -2.520  1.00  0.00     0.115 A 
BRANCH  34  35
ATOM     35  O   UNL     1      25.013 -11.558  -1.352  1.00  0.00    -0.508 OA
ATOM     36  H   UNL     1      24.112 -11.924  -1.358  1.00  0.00     0.293 HD
ENDBRANCH  34  35
ENDBRANCH  10  29
TORSDOF 9
ENDMDL
MODEL 19
REMARK VINA RESULT:    -6.164      5.098      8.506
REMARK INTER + INTRA:          -9.084
REMARK INTER:                  -7.949
REMARK INTRA:                  -1.134
REMARK UNBOUND:                -0.757
REMARK SMILES O=c1c(-c2ccc(O)cc2)coc2c([C@@H]3O[C@H](CO)[C@@H](O)[C@H](O)[C@H]3O)c(O)ccc12
REMARK SMILES IDX 12 1 1 2 14 3 13 4 26 5 30 6 28 7 29 8 2 9 3 10 11 11 15 12
REMARK SMILES IDX 16 13 17 14 24 15 20 16 22 17 18 18 19 19 25 21 21 23 23 25
REMARK SMILES IDX 27 27 4 29 5 30 10 31 6 32 9 33 7 34 8 35
REMARK H PARENT 19 20 25 22 21 24 23 26 27 28 8 36
REMARK INDEX MAP 6 1 8 2 15 3 17 4 18 5 19 6 20 7 21 8 22 9 23 10 24 11 12 12
REMARK INDEX MAP 1 13 14 14 10 15 13 16 11 17 16 18 5 19 43 20 2 21 38 22 4 23
REMARK INDEX MAP 40 24 3 25 39 26 7 27 45 28 25 29 26 30 27 31 28 32 29 33
REMARK INDEX MAP 30 34 9 35 50 36
ROOT
ATOM      1  O   UNL     1      29.260  -8.697  -4.629  1.00  0.00    -0.463 OA
ATOM      2  O   UNL     1      25.938  -9.015  -6.977  1.00  0.00    -0.288 OA
ATOM      3  C   UNL     1      29.746  -6.556  -5.500  1.00  0.00     0.069 A 
ATOM      4  C   UNL     1      28.913  -7.676  -5.476  1.00  0.00     0.147 A 
ATOM      5  C   UNL     1      29.445  -5.486  -6.341  1.00  0.00     0.125 A 
ATOM      6  C   UNL     1      27.785  -7.725  -6.292  1.00  0.00     0.066 A 
ATOM      7  C   UNL     1      28.315  -5.534  -7.159  1.00  0.00     0.047 A 
ATOM      8  C   UNL     1      27.482  -6.654  -7.138  1.00  0.00     0.020 A 
ATOM      9  C   UNL     1      26.921  -8.920  -6.254  1.00  0.00     0.200 A 
ATOM     10  C   UNL     1      27.323  -9.996  -5.307  1.00  0.00     0.065 A 
ATOM     11  C   UNL     1      28.437  -9.796  -4.587  1.00  0.00     0.208 A 
ENDROOT
BRANCH   3  12
ATOM     12  C   UNL     1      30.976  -6.495  -4.615  1.00  0.00     0.188 C 
ATOM     13  O   UNL     1      31.060  -5.171  -4.078  1.00  0.00    -0.362 OA
ATOM     14  C   UNL     1      32.134  -5.017  -3.150  1.00  0.00     0.176 C 
ATOM     15  C   UNL     1      32.256  -6.854  -5.385  1.00  0.00     0.179 C 
ATOM     16  C   UNL     1      33.472  -5.254  -3.853  1.00  0.00     0.177 C 
ATOM     17  C   UNL     1      33.499  -6.630  -4.520  1.00  0.00     0.177 C 
BRANCH  14  18
ATOM     18  C   UNL     1      32.042  -3.608  -2.573  1.00  0.00     0.191 C 
BRANCH  18  19
ATOM     19  O   UNL     1      32.498  -3.640  -1.232  1.00  0.00    -0.394 OA
ATOM     20  H   UNL     1      32.844  -2.757  -1.018  1.00  0.00     0.210 HD
ENDBRANCH  18  19
ENDBRANCH  14  18
BRANCH  15  21
ATOM     21  O   UNL     1      32.193  -8.230  -5.760  1.00  0.00    -0.387 OA
ATOM     22  H   UNL     1      32.541  -8.757  -5.022  1.00  0.00     0.211 HD
ENDBRANCH  15  21
BRANCH  16  23
ATOM     23  O   UNL     1      34.527  -5.174  -2.899  1.00  0.00    -0.388 OA
ATOM     24  H   UNL     1      34.128  -5.113  -2.014  1.00  0.00     0.211 HD
ENDBRANCH  16  23
BRANCH  17  25
ATOM     25  O   UNL     1      34.667  -6.702  -5.337  1.00  0.00    -0.387 OA
ATOM     26  H   UNL     1      34.518  -7.404  -5.995  1.00  0.00     0.211 HD
ENDBRANCH  17  25
ENDBRANCH   3  12
BRANCH   5  27
ATOM     27  O   UNL     1      30.244  -4.383  -6.380  1.00  0.00    -0.507 OA
ATOM     28  H   UNL     1      30.453  -4.108  -5.471  1.00  0.00     0.293 HD
ENDBRANCH   5  27
BRANCH  10  29
ATOM     29  C   UNL     1      26.529 -11.224  -5.141  1.00  0.00    -0.011 A 
ATOM     30  C   UNL     1      26.732 -12.311  -5.993  1.00  0.00     0.013 A 
ATOM     31  C   UNL     1      25.569 -11.306  -4.129  1.00  0.00     0.013 A 
ATOM     32  C   UNL     1      25.979 -13.475  -5.835  1.00  0.00     0.047 A 
ATOM     33  C   UNL     1      24.817 -12.470  -3.971  1.00  0.00     0.047 A 
ATOM     34  C   UNL     1      25.021 -13.554  -4.824  1.00  0.00     0.115 A 
BRANCH  34  35
ATOM     35  O   UNL     1      24.286 -14.689  -4.670  1.00  0.00    -0.508 OA
ATOM     36  H   UNL     1      24.379 -15.235  -5.470  1.00  0.00     0.293 HD
ENDBRANCH  34  35
ENDBRANCH  10  29
TORSDOF 9
ENDMDL
MODEL 20
REMARK VINA RESULT:    -2.562      1.632      8.596
REMARK INTER + INTRA:          -4.218
REMARK INTER:                  -3.131
REMARK INTRA:                  -1.087
REMARK UNBOUND:                -0.757
REMARK SMILES O=c1c(-c2ccc(O)cc2)coc2c([C@@H]3O[C@H](CO)[C@@H](O)[C@H](O)[C@H]3O)c(O)ccc12
REMARK SMILES IDX 12 1 1 2 14 3 13 4 26 5 30 6 28 7 29 8 2 9 3 10 11 11 15 12
REMARK SMILES IDX 16 13 17 14 24 15 20 16 22 17 18 18 19 19 25 21 21 23 23 25
REMARK SMILES IDX 27 27 4 29 5 30 10 31 6 32 9 33 7 34 8 35
REMARK H PARENT 19 20 25 22 21 24 23 26 27 28 8 36
REMARK INDEX MAP 6 1 8 2 15 3 17 4 18 5 19 6 20 7 21 8 22 9 23 10 24 11 12 12
REMARK INDEX MAP 1 13 14 14 10 15 13 16 11 17 16 18 5 19 43 20 2 21 38 22 4 23
REMARK INDEX MAP 40 24 3 25 39 26 7 27 45 28 25 29 26 30 27 31 28 32 29 33
REMARK INDEX MAP 30 34 9 35 50 36
ROOT
ATOM      1  O   UNL     1      29.739 -10.866  -7.242  1.00  0.00    -0.463 OA
ATOM      2  O   UNL     1      25.703 -10.569  -7.770  1.00  0.00    -0.288 OA
ATOM      3  C   UNL     1      30.131 -10.463  -9.536  1.00  0.00     0.069 A 
ATOM      4  C   UNL     1      29.223 -10.605  -8.486  1.00  0.00     0.147 A 
ATOM      5  C   UNL     1      29.666 -10.198 -10.823  1.00  0.00     0.125 A 
ATOM      6  C   UNL     1      27.855 -10.482  -8.723  1.00  0.00     0.066 A 
ATOM      7  C   UNL     1      28.296 -10.075 -11.062  1.00  0.00     0.047 A 
ATOM      8  C   UNL     1      27.387 -10.217 -10.013  1.00  0.00     0.020 A 
ATOM      9  C   UNL     1      26.914 -10.640  -7.599  1.00  0.00     0.200 A 
ATOM     10  C   UNL     1      27.516 -10.902  -6.263  1.00  0.00     0.065 A 
ATOM     11  C   UNL     1      28.853 -10.990  -6.199  1.00  0.00     0.208 A 
ENDROOT
BRANCH   3  12
ATOM     12  C   UNL     1      31.620 -10.596  -9.286  1.00  0.00     0.188 C 
ATOM     13  O   UNL     1      32.274  -9.528  -9.980  1.00  0.00    -0.362 OA
ATOM     14  C   UNL     1      33.682  -9.493  -9.743  1.00  0.00     0.176 C 
ATOM     15  C   UNL     1      32.162 -11.958  -9.748  1.00  0.00     0.179 C 
ATOM     16  C   UNL     1      34.333 -10.775 -10.267  1.00  0.00     0.177 C 
ATOM     17  C   UNL     1      33.687 -12.009  -9.636  1.00  0.00     0.177 C 
BRANCH  14  18
ATOM     18  C   UNL     1      34.234  -8.254 -10.441  1.00  0.00     0.191 C 
BRANCH  18  19
ATOM     19  O   UNL     1      35.378  -7.812  -9.734  1.00  0.00    -0.394 OA
ATOM     20  H   UNL     1      35.383  -8.262  -8.872  1.00  0.00     0.210 HD
ENDBRANCH  18  19
ENDBRANCH  14  18
BRANCH  15  21
ATOM     21  O   UNL     1      31.601 -12.976  -8.919  1.00  0.00    -0.387 OA
ATOM     22  H   UNL     1      30.888 -13.409  -9.418  1.00  0.00     0.211 HD
ENDBRANCH  15  21
BRANCH  16  23
ATOM     23  O   UNL     1      35.723 -10.759  -9.954  1.00  0.00    -0.388 OA
ATOM     24  H   UNL     1      36.041  -9.844 -10.042  1.00  0.00     0.211 HD
ENDBRANCH  16  23
BRANCH  17  25
ATOM     25  O   UNL     1      34.176 -13.162 -10.322  1.00  0.00    -0.387 OA
ATOM     26  H   UNL     1      35.006 -13.427  -9.889  1.00  0.00     0.211 HD
ENDBRANCH  17  25
ENDBRANCH   3  12
BRANCH   5  27
ATOM     27  O   UNL     1      30.534 -10.056 -11.863  1.00  0.00    -0.507 OA
ATOM     28  H   UNL     1      30.514 -10.860 -12.408  1.00  0.00     0.293 HD
ENDBRANCH   5  27
BRANCH  10  29
ATOM     29  C   UNL     1      26.694 -11.041  -5.051  1.00  0.00    -0.011 A 
ATOM     30  C   UNL     1      25.915 -12.184  -4.858  1.00  0.00     0.013 A 
ATOM     31  C   UNL     1      26.689 -10.029  -4.088  1.00  0.00     0.013 A 
ATOM     32  C   UNL     1      25.136 -12.315  -3.708  1.00  0.00     0.047 A 
ATOM     33  C   UNL     1      25.910 -10.160  -2.938  1.00  0.00     0.047 A 
ATOM     34  C   UNL     1      25.133 -11.302  -2.748  1.00  0.00     0.115 A 
BRANCH  34  35
ATOM     35  O   UNL     1      24.372 -11.430  -1.627  1.00  0.00    -0.508 OA
ATOM     36  H   UNL     1      23.942 -12.302  -1.637  1.00  0.00     0.293 HD
ENDBRANCH  34  35
ENDBRANCH  10  29
TORSDOF 9
ENDMDL
