REMARK SMILES N=C(NO)NCC[C@H](N)C(=O)O
REMARK SMILES IDX 7 1 8 2 9 3 10 6 11 7 12 8 6 10 5 11 2 12 3 13 1 14 4 18
REMARK H PARENT 9 4 9 5 12 9 5 15 3 16 1 17 4 19
REMARK INDEX MAP 5 1 2 2 1 3 13 4 14 5 3 6 4 7 12 8 24 9 6 10 7 11 8 12 9 13
REMARK INDEX MAP 10 14 20 15 21 16 22 17 11 18 23 19
ROOT
ATOM      1  C   UNL     1      25.845 -11.272  -4.903  1.00  0.00     0.052 C 
ENDROOT
BRANCH   1   2
ATOM      2  C   UNL     1      25.589  -9.881  -4.364  1.00  0.00     0.163 C 
BRANCH   2   3
ATOM      3  N   UNL     1      25.985  -9.898  -2.966  1.00  0.00    -0.318 NA
ATOM      4  H   UNL     1      25.145  -9.862  -2.371  1.00  0.00     0.119 HD
ATOM      5  H   UNL     1      26.509 -10.762  -2.768  1.00  0.00     0.119 HD
ENDBRANCH   2   3
BRANCH   2   6
ATOM      6  C   UNL     1      24.113  -9.489  -4.547  1.00  0.00     0.320 C 
ATOM      7  O   UNL     1      23.336  -9.211  -3.657  1.00  0.00    -0.251 OA
BRANCH   6   8
ATOM      8  O   UNL     1      23.753  -9.485  -5.850  1.00  0.00    -0.480 OA
ATOM      9  H   UNL     1      22.826  -9.249  -6.107  1.00  0.00     0.296 HD
ENDBRANCH   6   8
ENDBRANCH   2   6
ENDBRANCH   1   2
BRANCH   1  10
ATOM     10  C   UNL     1      25.082 -12.513  -4.580  1.00  0.00     0.118 C 
BRANCH  10  11
ATOM     11  N   UNL     1      25.335 -13.668  -5.472  1.00  0.00    -0.355 N 
ATOM     12  C   UNL     1      25.370 -14.993  -5.165  1.00  0.00     0.212 C 
ATOM     13  N   UNL     1      25.138 -15.401  -3.821  1.00  0.00    -0.238 N 
ATOM     14  N   UNL     1      25.613 -15.974  -6.060  1.00  0.00    -0.268 NA
ATOM     15  H   UNL     1      25.508 -13.436  -6.460  1.00  0.00     0.163 HD
ATOM     16  H   UNL     1      24.946 -14.697  -3.094  1.00  0.00     0.198 HD
ATOM     17  H   UNL     1      25.624 -16.958  -5.755  1.00  0.00     0.191 HD
BRANCH  13  18
ATOM     18  O   UNL     1      25.169 -16.646  -3.517  1.00  0.00    -0.289 OA
ATOM     19  H   UNL     1      25.172 -16.745  -2.532  1.00  0.00     0.246 HD
ENDBRANCH  13  18
ENDBRANCH  10  11
ENDBRANCH   1  10
TORSDOF 7
