REMARK SMILES O=c1c(-c2ccc(O)cc2)coc2c([C@@H]3O[C@H](CO)[C@@H](O)[C@H](O)[C@H]3O)c(O)ccc12
REMARK SMILES IDX 12 1 1 2 14 3 13 4 26 5 30 6 28 7 29 8 2 9 3 10 11 11 15 12
REMARK SMILES IDX 16 13 17 14 24 15 20 16 22 17 18 18 19 19 25 21 21 23 23 25
REMARK SMILES IDX 27 27 4 29 5 30 10 31 6 32 9 33 7 34 8 35
REMARK H PARENT 19 20 25 22 21 24 23 26 27 28 8 36
REMARK INDEX MAP 6 1 8 2 15 3 17 4 18 5 19 6 20 7 21 8 22 9 23 10 24 11 12 12
REMARK INDEX MAP 1 13 14 14 10 15 13 16 11 17 16 18 5 19 43 20 2 21 38 22 4 23
REMARK INDEX MAP 40 24 3 25 39 26 7 27 45 28 25 29 26 30 27 31 28 32 29 33
REMARK INDEX MAP 30 34 9 35 50 36
ROOT
ATOM      1  O   UNL     1      -0.361  -0.588  -0.266  1.00  0.00    -0.463 OA
ATOM      2  O   UNL     1      -3.153   2.288   0.498  1.00  0.00    -0.288 OA
ATOM      3  C   UNL     1       1.403   0.941   0.092  1.00  0.00     0.069 A 
ATOM      4  C   UNL     1       0.031   0.686   0.055  1.00  0.00     0.147 A 
ATOM      5  C   UNL     1       1.862   2.218   0.412  1.00  0.00     0.125 A 
ATOM      6  C   UNL     1      -0.877   1.705   0.336  1.00  0.00     0.066 A 
ATOM      7  C   UNL     1       0.953   3.239   0.693  1.00  0.00     0.047 A 
ATOM      8  C   UNL     1      -0.419   2.986   0.656  1.00  0.00     0.020 A 
ATOM      9  C   UNL     1      -2.322   1.414   0.287  1.00  0.00     0.200 A 
ATOM     10  C   UNL     1      -2.704   0.014  -0.046  1.00  0.00     0.065 A 
ATOM     11  C   UNL     1      -1.709  -0.853  -0.288  1.00  0.00     0.208 A 
ENDROOT
BRANCH   3  12
ATOM     12  C   UNL     1       2.397  -0.162  -0.213  1.00  0.00     0.188 C 
ATOM     13  O   UNL     1       3.173  -0.387   0.969  1.00  0.00    -0.362 OA
ATOM     14  C   UNL     1       4.088  -1.474   0.832  1.00  0.00     0.176 C 
ATOM     15  C   UNL     1       3.304   0.194  -1.401  1.00  0.00     0.179 C 
ATOM     16  C   UNL     1       5.106  -1.167  -0.268  1.00  0.00     0.177 C 
ATOM     17  C   UNL     1       4.401  -0.857  -1.589  1.00  0.00     0.177 C 
BRANCH  14  18
ATOM     18  C   UNL     1       4.763  -1.678   2.185  1.00  0.00     0.191 C 
BRANCH  18  19
ATOM     19  O   UNL     1       3.763  -1.947   3.151  1.00  0.00    -0.394 OA
ATOM     20  H   UNL     1       3.148  -1.194   3.155  1.00  0.00     0.210 HD
ENDBRANCH  18  19
ENDBRANCH  14  18
BRANCH  15  21
ATOM     21  O   UNL     1       2.506   0.249  -2.584  1.00  0.00    -0.387 OA
ATOM     22  H   UNL     1       1.908   1.011  -2.506  1.00  0.00     0.211 HD
ENDBRANCH  15  21
BRANCH  16  23
ATOM     23  O   UNL     1       5.962  -2.292  -0.445  1.00  0.00    -0.388 OA
ATOM     24  H   UNL     1       5.410  -3.055  -0.688  1.00  0.00     0.211 HD
ENDBRANCH  16  23
BRANCH  17  25
ATOM     25  O   UNL     1       5.379  -0.365  -2.506  1.00  0.00    -0.387 OA
ATOM     26  H   UNL     1       4.916  -0.146  -3.333  1.00  0.00     0.211 HD
ENDBRANCH  17  25
ENDBRANCH   3  12
BRANCH   5  27
ATOM     27  O   UNL     1       3.196   2.489   0.454  1.00  0.00    -0.507 OA
ATOM     28  H   UNL     1       3.676   1.689   0.727  1.00  0.00     0.293 HD
ENDBRANCH   5  27
BRANCH  10  29
ATOM     29  C   UNL     1      -4.109  -0.421  -0.090  1.00  0.00    -0.011 A 
ATOM     30  C   UNL     1      -4.731  -0.902   1.064  1.00  0.00     0.013 A 
ATOM     31  C   UNL     1      -4.826  -0.354  -1.287  1.00  0.00     0.013 A 
ATOM     32  C   UNL     1      -6.063  -1.314   1.022  1.00  0.00     0.047 A 
ATOM     33  C   UNL     1      -6.158  -0.766  -1.329  1.00  0.00     0.047 A 
ATOM     34  C   UNL     1      -6.777  -1.246  -0.175  1.00  0.00     0.115 A 
BRANCH  34  35
ATOM     35  O   UNL     1      -8.076  -1.649  -0.216  1.00  0.00    -0.508 OA
ATOM     36  H   UNL     1      -8.340  -1.951   0.670  1.00  0.00     0.293 HD
ENDBRANCH  34  35
ENDBRANCH  10  29
TORSDOF 9
