REMARK SMILES CCCCCCCCCC(=O)[O-]
REMARK SMILES IDX 6 1 7 2 8 3 9 4 10 5 11 6 12 7 5 8 4 9 3 10 2 11 1 12
REMARK H PARENT
REMARK INDEX MAP 6 1 5 2 4 3 3 4 1 5 2 6 12 7 7 8 8 9 9 10 10 11 11 12
ROOT
ATOM      1  C   UNL     1      47.467  36.390  30.704  1.00  0.00     0.000 C 
ENDROOT
BRANCH   1   2
ATOM      2  C   UNL     1      46.773  36.041  31.956  1.00  0.00     0.000 C 
BRANCH   2   3
ATOM      3  C   UNL     1      45.641  37.010  32.328  1.00  0.00     0.006 C 
BRANCH   3   4
ATOM      4  C   UNL     1      44.971  36.779  33.627  1.00  0.00     0.053 C 
BRANCH   4   5
ATOM      5  C   UNL     1      43.504  36.370  33.601  1.00  0.00     0.041 C 
ATOM      6  O   UNL     1      43.096  35.596  32.696  1.00  0.00    -0.550 OA
ATOM      7  O   UNL     1      42.743  36.798  34.506  1.00  0.00    -0.550 OA
ENDBRANCH   4   5
ENDBRANCH   3   4
ENDBRANCH   2   3
ENDBRANCH   1   2
BRANCH   1   8
ATOM      8  C   UNL     1      48.829  36.076  30.475  1.00  0.00     0.000 C 
BRANCH   8   9
ATOM      9  C   UNL     1      49.671  35.377  31.463  1.00  0.00    -0.000 C 
BRANCH   9  10
ATOM     10  C   UNL     1      50.952  36.030  31.723  1.00  0.00    -0.000 C 
BRANCH  10  11
ATOM     11  C   UNL     1      52.150  35.320  31.635  1.00  0.00    -0.003 C 
ATOM     12  C   UNL     1      53.340  35.879  31.050  1.00  0.00     0.004 C 
ENDBRANCH  10  11
ENDBRANCH   9  10
ENDBRANCH   8   9
ENDBRANCH   1   8
TORSDOF 8
