REMARK SMILES CCCCCCCCCC(=O)O
REMARK SMILES IDX 7 1 8 2 9 3 10 4 11 5 12 6 6 8 5 9 4 10 3 11 2 12 1 13
REMARK H PARENT 12 7
REMARK INDEX MAP 5 1 4 2 3 3 1 4 2 5 12 6 32 7 6 8 7 9 8 10 9 11 10 12 11 13
ROOT
ATOM      1  C   UNL     1      46.773  36.041  31.956  1.00  0.00     0.001 C 
ENDROOT
BRANCH   1   2
ATOM      2  C   UNL     1      45.641  37.010  32.328  1.00  0.00     0.012 C 
BRANCH   2   3
ATOM      3  C   UNL     1      44.971  36.779  33.627  1.00  0.00     0.122 C 
BRANCH   3   4
ATOM      4  C   UNL     1      43.504  36.370  33.601  1.00  0.00     0.303 C 
ATOM      5  O   UNL     1      43.096  35.596  32.696  1.00  0.00    -0.252 OA
BRANCH   4   6
ATOM      6  O   UNL     1      42.743  36.798  34.506  1.00  0.00    -0.481 OA
ATOM      7  H   UNL     1      43.096  37.406  35.203  1.00  0.00     0.296 HD
ENDBRANCH   4   6
ENDBRANCH   3   4
ENDBRANCH   2   3
ENDBRANCH   1   2
BRANCH   1   8
ATOM      8  C   UNL     1      47.467  36.390  30.704  1.00  0.00     0.000 C 
BRANCH   8   9
ATOM      9  C   UNL     1      48.829  36.076  30.475  1.00  0.00     0.000 C 
BRANCH   9  10
ATOM     10  C   UNL     1      49.671  35.377  31.463  1.00  0.00    -0.000 C 
BRANCH  10  11
ATOM     11  C   UNL     1      50.952  36.030  31.723  1.00  0.00    -0.000 C 
BRANCH  11  12
ATOM     12  C   UNL     1      52.150  35.320  31.635  1.00  0.00    -0.003 C 
ATOM     13  C   UNL     1      53.340  35.879  31.050  1.00  0.00     0.004 C 
ENDBRANCH  11  12
ENDBRANCH  10  11
ENDBRANCH   9  10
ENDBRANCH   8   9
ENDBRANCH   1   8
TORSDOF 9
