MODEL 1
REMARK VINA RESULT:    -7.832      0.000      0.000
REMARK INTER + INTRA:         -10.519
REMARK INTER:                 -10.350
REMARK INTRA:                  -0.169
REMARK UNBOUND:                -0.169
REMARK SMILES N=C(NO)NCC[C@H](N)C(=O)O
REMARK SMILES IDX 7 1 8 2 9 3 10 6 11 7 12 8 6 10 5 11 2 12 3 13 1 14 4 18
REMARK H PARENT 9 4 9 5 12 9 5 15 3 16 1 17 4 19
REMARK INDEX MAP 5 1 2 2 1 3 13 4 14 5 3 6 4 7 12 8 24 9 6 10 7 11 8 12 9 13
REMARK INDEX MAP 10 14 20 15 21 16 22 17 11 18 23 19
ROOT
ATOM      1  C   UNL     1      25.570 -11.747  -4.155  1.00  0.00     0.052 C 
ENDROOT
BRANCH   1   2
ATOM      2  C   UNL     1      25.129 -10.610  -3.258  1.00  0.00     0.163 C 
BRANCH   2   3
ATOM      3  N   UNL     1      24.614 -11.217  -2.043  1.00  0.00    -0.318 NA
ATOM      4  H   UNL     1      25.392 -11.631  -1.509  1.00  0.00     0.119 HD
ATOM      5  H   UNL     1      24.149 -10.498  -1.470  1.00  0.00     0.119 HD
ENDBRANCH   2   3
BRANCH   2   6
ATOM      6  C   UNL     1      24.079  -9.735  -3.964  1.00  0.00     0.320 C 
ATOM      7  O   UNL     1      24.158  -9.305  -5.096  1.00  0.00    -0.251 OA
BRANCH   6   8
ATOM      8  O   UNL     1      23.018  -9.483  -3.165  1.00  0.00    -0.480 OA
ATOM      9  H   UNL     1      22.135  -9.878  -3.376  1.00  0.00     0.296 HD
ENDBRANCH   6   8
ENDBRANCH   2   6
ENDBRANCH   1   2
BRANCH   1  10
ATOM     10  C   UNL     1      24.741 -12.897  -4.618  1.00  0.00     0.118 C 
BRANCH  10  11
ATOM     11  N   UNL     1      25.485 -14.145  -4.908  1.00  0.00    -0.355 N 
ATOM     12  C   UNL     1      25.046 -15.432  -4.862  1.00  0.00     0.212 C 
ATOM     13  N   UNL     1      23.696 -15.693  -4.494  1.00  0.00    -0.238 N 
ATOM     14  N   UNL     1      25.813 -16.506  -5.147  1.00  0.00    -0.268 NA
ATOM     15  H   UNL     1      26.469 -14.020  -5.183  1.00  0.00     0.163 HD
ATOM     16  H   UNL     1      23.063 -14.912  -4.267  1.00  0.00     0.198 HD
ATOM     17  H   UNL     1      25.412 -17.453  -5.091  1.00  0.00     0.191 HD
BRANCH  13  18
ATOM     18  O   UNL     1      23.270 -16.901  -4.445  1.00  0.00    -0.289 OA
ATOM     19  H   UNL     1      23.319 -17.304  -5.348  1.00  0.00     0.246 HD
ENDBRANCH  13  18
ENDBRANCH  10  11
ENDBRANCH   1  10
TORSDOF 7
ENDMDL
MODEL 2
REMARK VINA RESULT:    -7.715      2.025      2.324
REMARK INTER + INTRA:         -10.364
REMARK INTER:                 -10.217
REMARK INTRA:                  -0.147
REMARK UNBOUND:                -0.169
REMARK SMILES N=C(NO)NCC[C@H](N)C(=O)O
REMARK SMILES IDX 7 1 8 2 9 3 10 6 11 7 12 8 6 10 5 11 2 12 3 13 1 14 4 18
REMARK H PARENT 9 4 9 5 12 9 5 15 3 16 1 17 4 19
REMARK INDEX MAP 5 1 2 2 1 3 13 4 14 5 3 6 4 7 12 8 24 9 6 10 7 11 8 12 9 13
REMARK INDEX MAP 10 14 20 15 21 16 22 17 11 18 23 19
ROOT
ATOM      1  C   UNL     1      24.905 -11.849  -3.926  1.00  0.00     0.052 C 
ENDROOT
BRANCH   1   2
ATOM      2  C   UNL     1      25.421 -11.379  -2.583  1.00  0.00     0.163 C 
BRANCH   2   3
ATOM      3  N   UNL     1      24.344 -10.624  -1.966  1.00  0.00    -0.318 NA
ATOM      4  H   UNL     1      23.704 -10.279  -2.696  1.00  0.00     0.119 HD
ATOM      5  H   UNL     1      23.826 -11.231  -1.315  1.00  0.00     0.119 HD
ENDBRANCH   2   3
BRANCH   2   6
ATOM      6  C   UNL     1      26.699 -10.540  -2.753  1.00  0.00     0.320 C 
ATOM      7  O   UNL     1      27.082 -10.031  -3.785  1.00  0.00    -0.251 OA
BRANCH   6   8
ATOM      8  O   UNL     1      27.379 -10.422  -1.591  1.00  0.00    -0.480 OA
ATOM      9  H   UNL     1      27.006 -10.806  -0.757  1.00  0.00     0.296 HD
ENDBRANCH   6   8
ENDBRANCH   2   6
ENDBRANCH   1   2
BRANCH   1  10
ATOM     10  C   UNL     1      25.241 -13.127  -4.618  1.00  0.00     0.118 C 
BRANCH  10  11
ATOM     11  N   UNL     1      24.287 -14.240  -4.403  1.00  0.00    -0.355 N 
ATOM     12  C   UNL     1      24.426 -15.557  -4.714  1.00  0.00     0.212 C 
ATOM     13  N   UNL     1      25.629 -16.001  -5.333  1.00  0.00    -0.238 N 
ATOM     14  N   UNL     1      23.487 -16.497  -4.475  1.00  0.00    -0.268 NA
ATOM     15  H   UNL     1      23.397 -13.980  -3.955  1.00  0.00     0.163 HD
ATOM     16  H   UNL     1      26.382 -15.329  -5.539  1.00  0.00     0.198 HD
ATOM     17  H   UNL     1      23.662 -17.478  -4.738  1.00  0.00     0.191 HD
BRANCH  13  18
ATOM     18  O   UNL     1      25.773 -17.239  -5.633  1.00  0.00    -0.289 OA
ATOM     19  H   UNL     1      26.389 -17.322  -6.403  1.00  0.00     0.246 HD
ENDBRANCH  13  18
ENDBRANCH  10  11
ENDBRANCH   1  10
TORSDOF 7
ENDMDL
MODEL 3
REMARK VINA RESULT:    -7.537      1.568      1.897
REMARK INTER + INTRA:         -10.129
REMARK INTER:                  -9.976
REMARK INTRA:                  -0.153
REMARK UNBOUND:                -0.169
REMARK SMILES N=C(NO)NCC[C@H](N)C(=O)O
REMARK SMILES IDX 7 1 8 2 9 3 10 6 11 7 12 8 6 10 5 11 2 12 3 13 1 14 4 18
REMARK H PARENT 9 4 9 5 12 9 5 15 3 16 1 17 4 19
REMARK INDEX MAP 5 1 2 2 1 3 13 4 14 5 3 6 4 7 12 8 24 9 6 10 7 11 8 12 9 13
REMARK INDEX MAP 10 14 20 15 21 16 22 17 11 18 23 19
ROOT
ATOM      1  C   UNL     1      24.887 -11.819  -5.308  1.00  0.00     0.052 C 
ENDROOT
BRANCH   1   2
ATOM      2  C   UNL     1      23.743 -10.849  -5.512  1.00  0.00     0.163 C 
BRANCH   2   3
ATOM      3  N   UNL     1      23.734 -10.509  -6.925  1.00  0.00    -0.318 NA
ATOM      4  H   UNL     1      22.786 -10.640  -7.304  1.00  0.00     0.119 HD
ATOM      5  H   UNL     1      24.018  -9.526  -7.043  1.00  0.00     0.119 HD
ENDBRANCH   2   3
BRANCH   2   6
ATOM      6  C   UNL     1      23.912  -9.611  -4.616  1.00  0.00     0.320 C 
ATOM      7  O   UNL     1      23.014  -8.919  -4.183  1.00  0.00    -0.251 OA
BRANCH   6   8
ATOM      8  O   UNL     1      25.213  -9.360  -4.347  1.00  0.00    -0.480 OA
ATOM      9  H   UNL     1      25.596  -9.615  -3.470  1.00  0.00     0.296 HD
ENDBRANCH   6   8
ENDBRANCH   2   6
ENDBRANCH   1   2
BRANCH   1  10
ATOM     10  C   UNL     1      24.923 -12.978  -4.370  1.00  0.00     0.118 C 
BRANCH  10  11
ATOM     11  N   UNL     1      25.556 -14.208  -4.898  1.00  0.00    -0.355 N 
ATOM     12  C   UNL     1      25.056 -15.473  -4.948  1.00  0.00     0.212 C 
ATOM     13  N   UNL     1      23.750 -15.724  -4.442  1.00  0.00    -0.238 N 
ATOM     14  N   UNL     1      25.722 -16.533  -5.453  1.00  0.00    -0.268 NA
ATOM     15  H   UNL     1      26.504 -14.090  -5.281  1.00  0.00     0.163 HD
ATOM     16  H   UNL     1      23.193 -14.953  -4.045  1.00  0.00     0.198 HD
ATOM     17  H   UNL     1      25.280 -17.464  -5.458  1.00  0.00     0.191 HD
BRANCH  13  18
ATOM     18  O   UNL     1      23.267 -16.911  -4.481  1.00  0.00    -0.289 OA
ATOM     19  H   UNL     1      22.278 -16.863  -4.519  1.00  0.00     0.246 HD
ENDBRANCH  13  18
ENDBRANCH  10  11
ENDBRANCH   1  10
TORSDOF 7
ENDMDL
MODEL 4
REMARK VINA RESULT:    -7.519      1.427      1.747
REMARK INTER + INTRA:         -10.105
REMARK INTER:                  -9.985
REMARK INTRA:                  -0.120
REMARK UNBOUND:                -0.169
REMARK SMILES N=C(NO)NCC[C@H](N)C(=O)O
REMARK SMILES IDX 7 1 8 2 9 3 10 6 11 7 12 8 6 10 5 11 2 12 3 13 1 14 4 18
REMARK H PARENT 9 4 9 5 12 9 5 15 3 16 1 17 4 19
REMARK INDEX MAP 5 1 2 2 1 3 13 4 14 5 3 6 4 7 12 8 24 9 6 10 7 11 8 12 9 13
REMARK INDEX MAP 10 14 20 15 21 16 22 17 11 18 23 19
ROOT
ATOM      1  C   UNL     1      25.298 -12.006  -3.748  1.00  0.00     0.052 C 
ENDROOT
BRANCH   1   2
ATOM      2  C   UNL     1      25.144 -10.536  -4.073  1.00  0.00     0.163 C 
BRANCH   2   3
ATOM      3  N   UNL     1      26.433  -9.916  -3.814  1.00  0.00    -0.318 NA
ATOM      4  H   UNL     1      27.064 -10.605  -3.381  1.00  0.00     0.119 HD
ATOM      5  H   UNL     1      26.840  -9.588  -4.701  1.00  0.00     0.119 HD
ENDBRANCH   2   3
BRANCH   2   6
ATOM      6  C   UNL     1      24.017  -9.908  -3.236  1.00  0.00     0.320 C 
ATOM      7  O   UNL     1      23.156  -9.159  -3.650  1.00  0.00    -0.251 OA
BRANCH   6   8
ATOM      8  O   UNL     1      24.083 -10.289  -1.940  1.00  0.00    -0.480 OA
ATOM      9  H   UNL     1      23.818  -9.657  -1.224  1.00  0.00     0.296 HD
ENDBRANCH   6   8
ENDBRANCH   2   6
ENDBRANCH   1   2
BRANCH   1  10
ATOM     10  C   UNL     1      25.325 -13.140  -4.717  1.00  0.00     0.118 C 
BRANCH  10  11
ATOM     11  N   UNL     1      24.367 -14.236  -4.444  1.00  0.00    -0.355 N 
ATOM     12  C   UNL     1      24.478 -15.561  -4.736  1.00  0.00     0.212 C 
ATOM     13  N   UNL     1      25.651 -16.032  -5.391  1.00  0.00    -0.238 N 
ATOM     14  N   UNL     1      23.538 -16.484  -4.443  1.00  0.00    -0.268 NA
ATOM     15  H   UNL     1      23.498 -13.957  -3.968  1.00  0.00     0.163 HD
ATOM     16  H   UNL     1      26.403 -15.373  -5.639  1.00  0.00     0.198 HD
ATOM     17  H   UNL     1      23.691 -17.472  -4.694  1.00  0.00     0.191 HD
BRANCH  13  18
ATOM     18  O   UNL     1      25.769 -17.277  -5.673  1.00  0.00    -0.289 OA
ATOM     19  H   UNL     1      25.830 -17.388  -6.655  1.00  0.00     0.246 HD
ENDBRANCH  13  18
ENDBRANCH  10  11
ENDBRANCH   1  10
TORSDOF 7
ENDMDL
MODEL 5
REMARK VINA RESULT:    -7.496      1.671      1.934
REMARK INTER + INTRA:         -10.075
REMARK INTER:                  -9.887
REMARK INTRA:                  -0.189
REMARK UNBOUND:                -0.169
REMARK SMILES N=C(NO)NCC[C@H](N)C(=O)O
REMARK SMILES IDX 7 1 8 2 9 3 10 6 11 7 12 8 6 10 5 11 2 12 3 13 1 14 4 18
REMARK H PARENT 9 4 9 5 12 9 5 15 3 16 1 17 4 19
REMARK INDEX MAP 5 1 2 2 1 3 13 4 14 5 3 6 4 7 12 8 24 9 6 10 7 11 8 12 9 13
REMARK INDEX MAP 10 14 20 15 21 16 22 17 11 18 23 19
ROOT
ATOM      1  C   UNL     1      24.829 -11.872  -4.054  1.00  0.00     0.052 C 
ENDROOT
BRANCH   1   2
ATOM      2  C   UNL     1      24.611 -10.511  -4.681  1.00  0.00     0.163 C 
BRANCH   2   3
ATOM      3  N   UNL     1      24.211  -9.618  -3.607  1.00  0.00    -0.318 NA
ATOM      4  H   UNL     1      23.390  -9.071  -3.904  1.00  0.00     0.119 HD
ATOM      5  H   UNL     1      23.971 -10.171  -2.772  1.00  0.00     0.119 HD
ENDBRANCH   2   3
BRANCH   2   6
ATOM      6  C   UNL     1      23.556 -10.589  -5.798  1.00  0.00     0.320 C 
ATOM      7  O   UNL     1      23.784 -10.732  -6.981  1.00  0.00    -0.251 OA
BRANCH   6   8
ATOM      8  O   UNL     1      22.301 -10.477  -5.311  1.00  0.00    -0.480 OA
ATOM      9  H   UNL     1      21.928  -9.583  -5.101  1.00  0.00     0.296 HD
ENDBRANCH   6   8
ENDBRANCH   2   6
ENDBRANCH   1   2
BRANCH   1  10
ATOM     10  C   UNL     1      25.137 -13.147  -4.764  1.00  0.00     0.118 C 
BRANCH  10  11
ATOM     11  N   UNL     1      24.229 -14.279  -4.467  1.00  0.00    -0.355 N 
ATOM     12  C   UNL     1      24.394 -15.601  -4.741  1.00  0.00     0.212 C 
ATOM     13  N   UNL     1      25.579 -16.031  -5.401  1.00  0.00    -0.238 N 
ATOM     14  N   UNL     1      23.497 -16.560  -4.426  1.00  0.00    -0.268 NA
ATOM     15  H   UNL     1      23.353 -14.030  -3.986  1.00  0.00     0.163 HD
ATOM     16  H   UNL     1      26.301 -15.345  -5.665  1.00  0.00     0.198 HD
ATOM     17  H   UNL     1      23.689 -17.543  -4.665  1.00  0.00     0.191 HD
BRANCH  13  18
ATOM     18  O   UNL     1      25.748 -17.274  -5.667  1.00  0.00    -0.289 OA
ATOM     19  H   UNL     1      26.711 -17.496  -5.610  1.00  0.00     0.246 HD
ENDBRANCH  13  18
ENDBRANCH  10  11
ENDBRANCH   1  10
TORSDOF 7
ENDMDL
MODEL 6
REMARK VINA RESULT:    -7.432      1.904      2.045
REMARK INTER + INTRA:          -9.990
REMARK INTER:                  -9.847
REMARK INTRA:                  -0.143
REMARK UNBOUND:                -0.169
REMARK SMILES N=C(NO)NCC[C@H](N)C(=O)O
REMARK SMILES IDX 7 1 8 2 9 3 10 6 11 7 12 8 6 10 5 11 2 12 3 13 1 14 4 18
REMARK H PARENT 9 4 9 5 12 9 5 15 3 16 1 17 4 19
REMARK INDEX MAP 5 1 2 2 1 3 13 4 14 5 3 6 4 7 12 8 24 9 6 10 7 11 8 12 9 13
REMARK INDEX MAP 10 14 20 15 21 16 22 17 11 18 23 19
ROOT
ATOM      1  C   UNL     1      25.726 -11.834  -4.528  1.00  0.00     0.052 C 
ENDROOT
BRANCH   1   2
ATOM      2  C   UNL     1      25.310 -10.746  -3.562  1.00  0.00     0.163 C 
BRANCH   2   3
ATOM      3  N   UNL     1      25.792  -9.492  -4.116  1.00  0.00    -0.318 NA
ATOM      4  H   UNL     1      25.731  -9.526  -5.144  1.00  0.00     0.119 HD
ATOM      5  H   UNL     1      25.215  -8.716  -3.764  1.00  0.00     0.119 HD
ENDBRANCH   2   3
BRANCH   2   6
ATOM      6  C   UNL     1      25.877 -11.018  -2.158  1.00  0.00     0.320 C 
ATOM      7  O   UNL     1      27.002 -10.758  -1.783  1.00  0.00    -0.251 OA
BRANCH   6   8
ATOM      8  O   UNL     1      24.961 -11.600  -1.351  1.00  0.00    -0.480 OA
ATOM      9  H   UNL     1      25.254 -12.215  -0.632  1.00  0.00     0.296 HD
ENDBRANCH   6   8
ENDBRANCH   2   6
ENDBRANCH   1   2
BRANCH   1  10
ATOM     10  C   UNL     1      24.882 -12.959  -5.028  1.00  0.00     0.118 C 
BRANCH  10  11
ATOM     11  N   UNL     1      25.578 -14.257  -5.187  1.00  0.00    -0.355 N 
ATOM     12  C   UNL     1      25.104 -15.513  -4.965  1.00  0.00     0.212 C 
ATOM     13  N   UNL     1      23.762 -15.681  -4.520  1.00  0.00    -0.238 N 
ATOM     14  N   UNL     1      25.827 -16.639  -5.140  1.00  0.00    -0.268 NA
ATOM     15  H   UNL     1      26.554 -14.200  -5.509  1.00  0.00     0.163 HD
ATOM     16  H   UNL     1      23.162 -14.857  -4.370  1.00  0.00     0.198 HD
ATOM     17  H   UNL     1      25.402 -17.559  -4.953  1.00  0.00     0.191 HD
BRANCH  13  18
ATOM     18  O   UNL     1      23.303 -16.858  -4.306  1.00  0.00    -0.289 OA
ATOM     19  H   UNL     1      22.423 -16.955  -4.749  1.00  0.00     0.246 HD
ENDBRANCH  13  18
ENDBRANCH  10  11
ENDBRANCH   1  10
TORSDOF 7
ENDMDL
MODEL 7
REMARK VINA RESULT:    -7.357      1.491      1.850
REMARK INTER + INTRA:          -9.892
REMARK INTER:                  -9.704
REMARK INTRA:                  -0.188
REMARK UNBOUND:                -0.169
REMARK SMILES N=C(NO)NCC[C@H](N)C(=O)O
REMARK SMILES IDX 7 1 8 2 9 3 10 6 11 7 12 8 6 10 5 11 2 12 3 13 1 14 4 18
REMARK H PARENT 9 4 9 5 12 9 5 15 3 16 1 17 4 19
REMARK INDEX MAP 5 1 2 2 1 3 13 4 14 5 3 6 4 7 12 8 24 9 6 10 7 11 8 12 9 13
REMARK INDEX MAP 10 14 20 15 21 16 22 17 11 18 23 19
ROOT
ATOM      1  C   UNL     1      25.953 -11.974  -5.277  1.00  0.00     0.052 C 
ENDROOT
BRANCH   1   2
ATOM      2  C   UNL     1      25.454 -10.554  -5.434  1.00  0.00     0.163 C 
BRANCH   2   3
ATOM      3  N   UNL     1      25.537  -9.937  -4.121  1.00  0.00    -0.318 NA
ATOM      4  H   UNL     1      25.663 -10.668  -3.406  1.00  0.00     0.119 HD
ATOM      5  H   UNL     1      26.337  -9.290  -4.095  1.00  0.00     0.119 HD
ENDBRANCH   2   3
BRANCH   2   6
ATOM      6  C   UNL     1      24.022 -10.539  -5.996  1.00  0.00     0.320 C 
ATOM      7  O   UNL     1      23.018 -10.260  -5.374  1.00  0.00    -0.251 OA
BRANCH   6   8
ATOM      8  O   UNL     1      23.993 -10.880  -7.304  1.00  0.00    -0.480 OA
ATOM      9  H   UNL     1      23.776 -11.809  -7.568  1.00  0.00     0.296 HD
ENDBRANCH   6   8
ENDBRANCH   2   6
ENDBRANCH   1   2
BRANCH   1  10
ATOM     10  C   UNL     1      25.183 -13.142  -4.757  1.00  0.00     0.118 C 
BRANCH  10  11
ATOM     11  N   UNL     1      25.686 -14.473  -5.171  1.00  0.00    -0.355 N 
ATOM     12  C   UNL     1      25.078 -15.686  -5.066  1.00  0.00     0.212 C 
ATOM     13  N   UNL     1      23.778 -15.764  -4.492  1.00  0.00    -0.238 N 
ATOM     14  N   UNL     1      25.628 -16.849  -5.476  1.00  0.00    -0.268 NA
ATOM     15  H   UNL     1      26.623 -14.480  -5.596  1.00  0.00     0.163 HD
ATOM     16  H   UNL     1      23.307 -14.910  -4.162  1.00  0.00     0.198 HD
ATOM     17  H   UNL     1      25.109 -17.731  -5.365  1.00  0.00     0.191 HD
BRANCH  13  18
ATOM     18  O   UNL     1      23.194 -16.901  -4.386  1.00  0.00    -0.289 OA
ATOM     19  H   UNL     1      23.741 -17.501  -3.820  1.00  0.00     0.246 HD
ENDBRANCH  13  18
ENDBRANCH  10  11
ENDBRANCH   1  10
TORSDOF 7
ENDMDL
MODEL 8
REMARK VINA RESULT:    -6.878      3.220      5.413
REMARK INTER + INTRA:          -9.258
REMARK INTER:                  -8.551
REMARK INTRA:                  -0.707
REMARK UNBOUND:                -0.169
REMARK SMILES N=C(NO)NCC[C@H](N)C(=O)O
REMARK SMILES IDX 7 1 8 2 9 3 10 6 11 7 12 8 6 10 5 11 2 12 3 13 1 14 4 18
REMARK H PARENT 9 4 9 5 12 9 5 15 3 16 1 17 4 19
REMARK INDEX MAP 5 1 2 2 1 3 13 4 14 5 3 6 4 7 12 8 24 9 6 10 7 11 8 12 9 13
REMARK INDEX MAP 10 14 20 15 21 16 22 17 11 18 23 19
ROOT
ATOM      1  C   UNL     1      26.268 -10.370  -4.265  1.00  0.00     0.052 C 
ENDROOT
BRANCH   1   2
ATOM      2  C   UNL     1      25.524 -11.505  -3.595  1.00  0.00     0.163 C 
BRANCH   2   3
ATOM      3  N   UNL     1      24.576 -12.013  -4.572  1.00  0.00    -0.318 NA
ATOM      4  H   UNL     1      24.614 -13.043  -4.584  1.00  0.00     0.119 HD
ATOM      5  H   UNL     1      23.625 -11.709  -4.319  1.00  0.00     0.119 HD
ENDBRANCH   2   3
BRANCH   2   6
ATOM      6  C   UNL     1      24.833 -11.020  -2.309  1.00  0.00     0.320 C 
ATOM      7  O   UNL     1      24.041 -10.104  -2.231  1.00  0.00    -0.251 OA
BRANCH   6   8
ATOM      8  O   UNL     1      25.212 -11.745  -1.233  1.00  0.00    -0.480 OA
ATOM      9  H   UNL     1      25.817 -11.348  -0.557  1.00  0.00     0.296 HD
ENDBRANCH   6   8
ENDBRANCH   2   6
ENDBRANCH   1   2
BRANCH   1  10
ATOM     10  C   UNL     1      25.757  -9.477  -5.346  1.00  0.00     0.118 C 
BRANCH  10  11
ATOM     11  N   UNL     1      25.086  -8.239  -4.887  1.00  0.00    -0.355 N 
ATOM     12  C   UNL     1      23.782  -8.049  -4.546  1.00  0.00     0.212 C 
ATOM     13  N   UNL     1      22.880  -9.148  -4.613  1.00  0.00    -0.238 N 
ATOM     14  N   UNL     1      23.267  -6.870  -4.138  1.00  0.00    -0.268 NA
ATOM     15  H   UNL     1      25.689  -7.408  -4.816  1.00  0.00     0.163 HD
ATOM     16  H   UNL     1      23.216 -10.074  -4.916  1.00  0.00     0.198 HD
ATOM     17  H   UNL     1      22.269  -6.801  -3.896  1.00  0.00     0.191 HD
BRANCH  13  18
ATOM     18  O   UNL     1      21.649  -8.984  -4.296  1.00  0.00    -0.289 OA
ATOM     19  H   UNL     1      21.406  -8.030  -4.399  1.00  0.00     0.246 HD
ENDBRANCH  13  18
ENDBRANCH  10  11
ENDBRANCH   1  10
TORSDOF 7
ENDMDL
MODEL 9
REMARK VINA RESULT:    -6.836      2.964      5.462
REMARK INTER + INTRA:          -9.203
REMARK INTER:                  -8.669
REMARK INTRA:                  -0.534
REMARK UNBOUND:                -0.169
REMARK SMILES N=C(NO)NCC[C@H](N)C(=O)O
REMARK SMILES IDX 7 1 8 2 9 3 10 6 11 7 12 8 6 10 5 11 2 12 3 13 1 14 4 18
REMARK H PARENT 9 4 9 5 12 9 5 15 3 16 1 17 4 19
REMARK INDEX MAP 5 1 2 2 1 3 13 4 14 5 3 6 4 7 12 8 24 9 6 10 7 11 8 12 9 13
REMARK INDEX MAP 10 14 20 15 21 16 22 17 11 18 23 19
ROOT
ATOM      1  C   UNL     1      25.561 -10.810  -4.763  1.00  0.00     0.052 C 
ENDROOT
BRANCH   1   2
ATOM      2  C   UNL     1      25.521 -11.841  -3.656  1.00  0.00     0.163 C 
BRANCH   2   3
ATOM      3  N   UNL     1      24.658 -12.915  -4.119  1.00  0.00    -0.318 NA
ATOM      4  H   UNL     1      24.654 -12.932  -5.148  1.00  0.00     0.119 HD
ATOM      5  H   UNL     1      25.008 -13.815  -3.762  1.00  0.00     0.119 HD
ENDBRANCH   2   3
BRANCH   2   6
ATOM      6  C   UNL     1      25.020 -11.214  -2.345  1.00  0.00     0.320 C 
ATOM      7  O   UNL     1      24.464 -10.140  -2.238  1.00  0.00    -0.251 OA
BRANCH   6   8
ATOM      8  O   UNL     1      25.269 -12.009  -1.280  1.00  0.00    -0.480 OA
ATOM      9  H   UNL     1      25.782 -11.658  -0.509  1.00  0.00     0.296 HD
ENDBRANCH   6   8
ENDBRANCH   2   6
ENDBRANCH   1   2
BRANCH   1  10
ATOM     10  C   UNL     1      24.446 -10.440  -5.683  1.00  0.00     0.118 C 
BRANCH  10  11
ATOM     11  N   UNL     1      23.150 -10.146  -5.029  1.00  0.00    -0.355 N 
ATOM     12  C   UNL     1      22.739  -8.998  -4.425  1.00  0.00     0.212 C 
ATOM     13  N   UNL     1      23.622  -7.883  -4.378  1.00  0.00    -0.238 N 
ATOM     14  N   UNL     1      21.527  -8.833  -3.852  1.00  0.00    -0.268 NA
ATOM     15  H   UNL     1      22.466 -10.916  -5.033  1.00  0.00     0.163 HD
ATOM     16  H   UNL     1      24.560  -7.949  -4.799  1.00  0.00     0.198 HD
ATOM     17  H   UNL     1      21.284  -7.934  -3.412  1.00  0.00     0.191 HD
BRANCH  13  18
ATOM     18  O   UNL     1      23.248  -6.796  -3.811  1.00  0.00    -0.289 OA
ATOM     19  H   UNL     1      23.932  -6.516  -3.151  1.00  0.00     0.246 HD
ENDBRANCH  13  18
ENDBRANCH  10  11
ENDBRANCH   1  10
TORSDOF 7
ENDMDL
MODEL 10
REMARK VINA RESULT:    -6.655      3.224      4.917
REMARK INTER + INTRA:          -8.963
REMARK INTER:                  -8.414
REMARK INTRA:                  -0.549
REMARK UNBOUND:                -0.169
REMARK SMILES N=C(NO)NCC[C@H](N)C(=O)O
REMARK SMILES IDX 7 1 8 2 9 3 10 6 11 7 12 8 6 10 5 11 2 12 3 13 1 14 4 18
REMARK H PARENT 9 4 9 5 12 9 5 15 3 16 1 17 4 19
REMARK INDEX MAP 5 1 2 2 1 3 13 4 14 5 3 6 4 7 12 8 24 9 6 10 7 11 8 12 9 13
REMARK INDEX MAP 10 14 20 15 21 16 22 17 11 18 23 19
ROOT
ATOM      1  C   UNL     1      24.324 -11.141  -5.323  1.00  0.00     0.052 C 
ENDROOT
BRANCH   1   2
ATOM      2  C   UNL     1      25.511 -11.917  -5.851  1.00  0.00     0.163 C 
BRANCH   2   3
ATOM      3  N   UNL     1      25.386 -11.934  -7.298  1.00  0.00    -0.318 NA
ATOM      4  H   UNL     1      24.578 -12.513  -7.566  1.00  0.00     0.119 HD
ATOM      5  H   UNL     1      25.248 -10.973  -7.642  1.00  0.00     0.119 HD
ENDBRANCH   2   3
BRANCH   2   6
ATOM      6  C   UNL     1      25.545 -13.334  -5.252  1.00  0.00     0.320 C 
ATOM      7  O   UNL     1      26.011 -14.319  -5.786  1.00  0.00    -0.251 OA
BRANCH   6   8
ATOM      8  O   UNL     1      24.981 -13.373  -4.024  1.00  0.00    -0.480 OA
ATOM      9  H   UNL     1      24.627 -14.227  -3.669  1.00  0.00     0.296 HD
ENDBRANCH   6   8
ENDBRANCH   2   6
ENDBRANCH   1   2
BRANCH   1  10
ATOM     10  C   UNL     1      24.353 -10.014  -4.345  1.00  0.00     0.118 C 
BRANCH  10  11
ATOM     11  N   UNL     1      25.628  -9.839  -3.611  1.00  0.00    -0.355 N 
ATOM     12  C   UNL     1      26.044 -10.443  -2.465  1.00  0.00     0.212 C 
ATOM     13  N   UNL     1      25.190 -11.388  -1.829  1.00  0.00    -0.238 N 
ATOM     14  N   UNL     1      27.234 -10.210  -1.872  1.00  0.00    -0.268 NA
ATOM     15  H   UNL     1      26.289  -9.167  -4.025  1.00  0.00     0.163 HD
ATOM     16  H   UNL     1      24.270 -11.608  -2.235  1.00  0.00     0.198 HD
ATOM     17  H   UNL     1      27.483 -10.705  -1.004  1.00  0.00     0.191 HD
BRANCH  13  18
ATOM     18  O   UNL     1      25.569 -11.964  -0.748  1.00  0.00    -0.289 OA
ATOM     19  H   UNL     1      26.556 -11.928  -0.683  1.00  0.00     0.246 HD
ENDBRANCH  13  18
ENDBRANCH  10  11
ENDBRANCH   1  10
TORSDOF 7
ENDMDL
MODEL 11
REMARK VINA RESULT:    -6.575      4.234      5.713
REMARK INTER + INTRA:          -8.857
REMARK INTER:                  -8.042
REMARK INTRA:                  -0.816
REMARK UNBOUND:                -0.169
REMARK SMILES N=C(NO)NCC[C@H](N)C(=O)O
REMARK SMILES IDX 7 1 8 2 9 3 10 6 11 7 12 8 6 10 5 11 2 12 3 13 1 14 4 18
REMARK H PARENT 9 4 9 5 12 9 5 15 3 16 1 17 4 19
REMARK INDEX MAP 5 1 2 2 1 3 13 4 14 5 3 6 4 7 12 8 24 9 6 10 7 11 8 12 9 13
REMARK INDEX MAP 10 14 20 15 21 16 22 17 11 18 23 19
ROOT
ATOM      1  C   UNL     1      24.902 -11.512  -3.995  1.00  0.00     0.052 C 
ENDROOT
BRANCH   1   2
ATOM      2  C   UNL     1      25.257 -11.178  -2.562  1.00  0.00     0.163 C 
BRANCH   2   3
ATOM      3  N   UNL     1      24.272 -10.212  -2.105  1.00  0.00    -0.318 NA
ATOM      4  H   UNL     1      23.725  -9.874  -2.910  1.00  0.00     0.119 HD
ATOM      5  H   UNL     1      23.642 -10.660  -1.425  1.00  0.00     0.119 HD
ENDBRANCH   2   3
BRANCH   2   6
ATOM      6  C   UNL     1      26.693 -10.635  -2.469  1.00  0.00     0.320 C 
ATOM      7  O   UNL     1      27.319 -10.123  -3.374  1.00  0.00    -0.251 OA
BRANCH   6   8
ATOM      8  O   UNL     1      27.209 -10.793  -1.230  1.00  0.00    -0.480 OA
ATOM      9  H   UNL     1      27.954 -11.429  -1.081  1.00  0.00     0.296 HD
ENDBRANCH   6   8
ENDBRANCH   2   6
ENDBRANCH   1   2
BRANCH   1  10
ATOM     10  C   UNL     1      24.339 -10.584  -5.019  1.00  0.00     0.118 C 
BRANCH  10  11
ATOM     11  N   UNL     1      25.142  -9.369  -5.289  1.00  0.00    -0.355 N 
ATOM     12  C   UNL     1      24.869  -8.076  -4.969  1.00  0.00     0.212 C 
ATOM     13  N   UNL     1      23.663  -7.772  -4.276  1.00  0.00    -0.238 N 
ATOM     14  N   UNL     1      25.674  -7.033  -5.265  1.00  0.00    -0.268 NA
ATOM     15  H   UNL     1      26.030  -9.526  -5.787  1.00  0.00     0.163 HD
ATOM     16  H   UNL     1      23.009  -8.527  -4.022  1.00  0.00     0.198 HD
ATOM     17  H   UNL     1      25.401  -6.078  -4.990  1.00  0.00     0.191 HD
BRANCH  13  18
ATOM     18  O   UNL     1      23.391  -6.557  -3.969  1.00  0.00    -0.289 OA
ATOM     19  H   UNL     1      22.423  -6.473  -3.781  1.00  0.00     0.246 HD
ENDBRANCH  13  18
ENDBRANCH  10  11
ENDBRANCH   1  10
TORSDOF 7
ENDMDL
MODEL 12
REMARK VINA RESULT:    -6.435      3.690      4.762
REMARK INTER + INTRA:          -8.672
REMARK INTER:                  -8.206
REMARK INTRA:                  -0.466
REMARK UNBOUND:                -0.169
REMARK SMILES N=C(NO)NCC[C@H](N)C(=O)O
REMARK SMILES IDX 7 1 8 2 9 3 10 6 11 7 12 8 6 10 5 11 2 12 3 13 1 14 4 18
REMARK H PARENT 9 4 9 5 12 9 5 15 3 16 1 17 4 19
REMARK INDEX MAP 5 1 2 2 1 3 13 4 14 5 3 6 4 7 12 8 24 9 6 10 7 11 8 12 9 13
REMARK INDEX MAP 10 14 20 15 21 16 22 17 11 18 23 19
ROOT
ATOM      1  C   UNL     1      24.568 -11.085  -4.610  1.00  0.00     0.052 C 
ENDROOT
BRANCH   1   2
ATOM      2  C   UNL     1      24.148  -9.744  -4.048  1.00  0.00     0.163 C 
BRANCH   2   3
ATOM      3  N   UNL     1      24.349  -9.814  -2.611  1.00  0.00    -0.318 NA
ATOM      4  H   UNL     1      24.372  -8.861  -2.221  1.00  0.00     0.119 HD
ATOM      5  H   UNL     1      23.576 -10.342  -2.181  1.00  0.00     0.119 HD
ENDBRANCH   2   3
BRANCH   2   6
ATOM      6  C   UNL     1      22.688  -9.432  -4.418  1.00  0.00     0.320 C 
ATOM      7  O   UNL     1      21.964  -8.640  -3.850  1.00  0.00    -0.251 OA
BRANCH   6   8
ATOM      8  O   UNL     1      22.274 -10.156  -5.482  1.00  0.00    -0.480 OA
ATOM      9  H   UNL     1      21.659  -9.754  -6.146  1.00  0.00     0.296 HD
ENDBRANCH   6   8
ENDBRANCH   2   6
ENDBRANCH   1   2
BRANCH   1  10
ATOM     10  C   UNL     1      25.940 -11.671  -4.599  1.00  0.00     0.118 C 
BRANCH  10  11
ATOM     11  N   UNL     1      27.051 -10.697  -4.708  1.00  0.00    -0.355 N 
ATOM     12  C   UNL     1      27.690 -10.016  -3.718  1.00  0.00     0.212 C 
ATOM     13  N   UNL     1      27.292 -10.219  -2.367  1.00  0.00    -0.238 N 
ATOM     14  N   UNL     1      28.698  -9.142  -3.926  1.00  0.00    -0.268 NA
ATOM     15  H   UNL     1      27.385 -10.510  -5.664  1.00  0.00     0.163 HD
ATOM     16  H   UNL     1      26.529 -10.875  -2.146  1.00  0.00     0.198 HD
ATOM     17  H   UNL     1      29.136  -8.662  -3.127  1.00  0.00     0.191 HD
BRANCH  13  18
ATOM     18  O   UNL     1      27.885  -9.583  -1.424  1.00  0.00    -0.289 OA
ATOM     19  H   UNL     1      28.028  -8.643  -1.700  1.00  0.00     0.246 HD
ENDBRANCH  13  18
ENDBRANCH  10  11
ENDBRANCH   1  10
TORSDOF 7
ENDMDL
MODEL 13
REMARK VINA RESULT:    -6.418      3.373      5.916
REMARK INTER + INTRA:          -8.651
REMARK INTER:                  -8.115
REMARK INTRA:                  -0.536
REMARK UNBOUND:                -0.169
REMARK SMILES N=C(NO)NCC[C@H](N)C(=O)O
REMARK SMILES IDX 7 1 8 2 9 3 10 6 11 7 12 8 6 10 5 11 2 12 3 13 1 14 4 18
REMARK H PARENT 9 4 9 5 12 9 5 15 3 16 1 17 4 19
REMARK INDEX MAP 5 1 2 2 1 3 13 4 14 5 3 6 4 7 12 8 24 9 6 10 7 11 8 12 9 13
REMARK INDEX MAP 10 14 20 15 21 16 22 17 11 18 23 19
ROOT
ATOM      1  C   UNL     1      26.050 -10.286  -5.361  1.00  0.00     0.052 C 
ENDROOT
BRANCH   1   2
ATOM      2  C   UNL     1      25.581 -11.338  -6.343  1.00  0.00     0.163 C 
BRANCH   2   3
ATOM      3  N   UNL     1      24.241 -10.954  -6.753  1.00  0.00    -0.318 NA
ATOM      4  H   UNL     1      23.549 -11.507  -6.227  1.00  0.00     0.119 HD
ATOM      5  H   UNL     1      24.096  -9.953  -6.562  1.00  0.00     0.119 HD
ENDBRANCH   2   3
BRANCH   2   6
ATOM      6  C   UNL     1      25.617 -12.736  -5.703  1.00  0.00     0.320 C 
ATOM      7  O   UNL     1      26.532 -13.530  -5.780  1.00  0.00    -0.251 OA
BRANCH   6   8
ATOM      8  O   UNL     1      24.483 -13.003  -5.017  1.00  0.00    -0.480 OA
ATOM      9  H   UNL     1      24.161 -12.370  -4.326  1.00  0.00     0.296 HD
ENDBRANCH   6   8
ENDBRANCH   2   6
ENDBRANCH   1   2
BRANCH   1  10
ATOM     10  C   UNL     1      25.531 -10.051  -3.983  1.00  0.00     0.118 C 
BRANCH  10  11
ATOM     11  N   UNL     1      24.060  -9.912  -3.870  1.00  0.00    -0.355 N 
ATOM     12  C   UNL     1      23.290  -8.807  -4.058  1.00  0.00     0.212 C 
ATOM     13  N   UNL     1      23.913  -7.579  -4.418  1.00  0.00    -0.238 N 
ATOM     14  N   UNL     1      21.946  -8.787  -3.928  1.00  0.00    -0.268 NA
ATOM     15  H   UNL     1      23.552 -10.770  -3.614  1.00  0.00     0.163 HD
ATOM     16  H   UNL     1      24.935  -7.533  -4.533  1.00  0.00     0.198 HD
ATOM     17  H   UNL     1      21.427  -7.911  -4.086  1.00  0.00     0.191 HD
BRANCH  13  18
ATOM     18  O   UNL     1      23.199  -6.529  -4.597  1.00  0.00    -0.289 OA
ATOM     19  H   UNL     1      23.407  -6.137  -5.482  1.00  0.00     0.246 HD
ENDBRANCH  13  18
ENDBRANCH  10  11
ENDBRANCH   1  10
TORSDOF 7
ENDMDL
MODEL 14
REMARK VINA RESULT:    -6.368      4.129      5.943
REMARK INTER + INTRA:          -8.584
REMARK INTER:                  -7.703
REMARK INTRA:                  -0.881
REMARK UNBOUND:                -0.169
REMARK SMILES N=C(NO)NCC[C@H](N)C(=O)O
REMARK SMILES IDX 7 1 8 2 9 3 10 6 11 7 12 8 6 10 5 11 2 12 3 13 1 14 4 18
REMARK H PARENT 9 4 9 5 12 9 5 15 3 16 1 17 4 19
REMARK INDEX MAP 5 1 2 2 1 3 13 4 14 5 3 6 4 7 12 8 24 9 6 10 7 11 8 12 9 13
REMARK INDEX MAP 10 14 20 15 21 16 22 17 11 18 23 19
ROOT
ATOM      1  C   UNL     1      26.040 -10.820  -5.605  1.00  0.00     0.052 C 
ENDROOT
BRANCH   1   2
ATOM      2  C   UNL     1      25.969 -10.259  -7.009  1.00  0.00     0.163 C 
BRANCH   2   3
ATOM      3  N   UNL     1      25.834  -8.818  -6.874  1.00  0.00    -0.318 NA
ATOM      4  H   UNL     1      26.414  -8.351  -7.586  1.00  0.00     0.119 HD
ATOM      5  H   UNL     1      24.849  -8.551  -7.005  1.00  0.00     0.119 HD
ENDBRANCH   2   3
BRANCH   2   6
ATOM      6  C   UNL     1      24.798 -10.883  -7.787  1.00  0.00     0.320 C 
ATOM      7  O   UNL     1      24.888 -11.525  -8.812  1.00  0.00    -0.251 OA
BRANCH   6   8
ATOM      8  O   UNL     1      23.611 -10.635  -7.190  1.00  0.00    -0.480 OA
ATOM      9  H   UNL     1      23.553  -9.970  -6.458  1.00  0.00     0.296 HD
ENDBRANCH   6   8
ENDBRANCH   2   6
ENDBRANCH   1   2
BRANCH   1  10
ATOM     10  C   UNL     1      25.645 -10.130  -4.343  1.00  0.00     0.118 C 
BRANCH  10  11
ATOM     11  N   UNL     1      24.187  -9.977  -4.128  1.00  0.00    -0.355 N 
ATOM     12  C   UNL     1      23.427  -8.851  -4.199  1.00  0.00     0.212 C 
ATOM     13  N   UNL     1      24.049  -7.611  -4.521  1.00  0.00    -0.238 N 
ATOM     14  N   UNL     1      22.095  -8.819  -3.982  1.00  0.00    -0.268 NA
ATOM     15  H   UNL     1      23.680 -10.842  -3.894  1.00  0.00     0.163 HD
ATOM     16  H   UNL     1      25.063  -7.574  -4.698  1.00  0.00     0.198 HD
ATOM     17  H   UNL     1      21.583  -7.928  -4.053  1.00  0.00     0.191 HD
BRANCH  13  18
ATOM     18  O   UNL     1      23.345  -6.542  -4.590  1.00  0.00    -0.289 OA
ATOM     19  H   UNL     1      23.902  -5.803  -4.941  1.00  0.00     0.246 HD
ENDBRANCH  13  18
ENDBRANCH  10  11
ENDBRANCH   1  10
TORSDOF 7
ENDMDL
MODEL 15
REMARK VINA RESULT:    -6.311      1.907      2.405
REMARK INTER + INTRA:          -8.508
REMARK INTER:                  -8.197
REMARK INTRA:                  -0.311
REMARK UNBOUND:                -0.169
REMARK SMILES N=C(NO)NCC[C@H](N)C(=O)O
REMARK SMILES IDX 7 1 8 2 9 3 10 6 11 7 12 8 6 10 5 11 2 12 3 13 1 14 4 18
REMARK H PARENT 9 4 9 5 12 9 5 15 3 16 1 17 4 19
REMARK INDEX MAP 5 1 2 2 1 3 13 4 14 5 3 6 4 7 12 8 24 9 6 10 7 11 8 12 9 13
REMARK INDEX MAP 10 14 20 15 21 16 22 17 11 18 23 19
ROOT
ATOM      1  C   UNL     1      24.074 -10.239  -3.866  1.00  0.00     0.052 C 
ENDROOT
BRANCH   1   2
ATOM      2  C   UNL     1      24.169  -9.008  -4.742  1.00  0.00     0.163 C 
BRANCH   2   3
ATOM      3  N   UNL     1      25.549  -8.557  -4.676  1.00  0.00    -0.318 NA
ATOM      4  H   UNL     1      25.779  -8.295  -3.706  1.00  0.00     0.119 HD
ATOM      5  H   UNL     1      26.173  -9.317  -4.982  1.00  0.00     0.119 HD
ENDBRANCH   2   3
BRANCH   2   6
ATOM      6  C   UNL     1      23.180  -7.928  -4.272  1.00  0.00     0.320 C 
ATOM      7  O   UNL     1      23.300  -6.732  -4.443  1.00  0.00    -0.251 OA
BRANCH   6   8
ATOM      8  O   UNL     1      22.122  -8.464  -3.624  1.00  0.00    -0.480 OA
ATOM      9  H   UNL     1      22.215  -9.335  -3.160  1.00  0.00     0.296 HD
ENDBRANCH   6   8
ENDBRANCH   2   6
ENDBRANCH   1   2
BRANCH   1  10
ATOM     10  C   UNL     1      25.192 -11.142  -3.464  1.00  0.00     0.118 C 
BRANCH  10  11
ATOM     11  N   UNL     1      25.770 -11.965  -4.552  1.00  0.00    -0.355 N 
ATOM     12  C   UNL     1      25.392 -13.199  -4.982  1.00  0.00     0.212 C 
ATOM     13  N   UNL     1      24.295 -13.850  -4.349  1.00  0.00    -0.238 N 
ATOM     14  N   UNL     1      25.991 -13.869  -5.989  1.00  0.00    -0.268 NA
ATOM     15  H   UNL     1      26.567 -11.546  -5.050  1.00  0.00     0.163 HD
ATOM     16  H   UNL     1      23.798 -13.387  -3.575  1.00  0.00     0.198 HD
ATOM     17  H   UNL     1      25.650 -14.802  -6.261  1.00  0.00     0.191 HD
BRANCH  13  18
ATOM     18  O   UNL     1      23.929 -15.013  -4.743  1.00  0.00    -0.289 OA
ATOM     19  H   UNL     1      24.452 -15.704  -4.264  1.00  0.00     0.246 HD
ENDBRANCH  13  18
ENDBRANCH  10  11
ENDBRANCH   1  10
TORSDOF 7
ENDMDL
MODEL 16
REMARK VINA RESULT:    -6.303      3.584      5.326
REMARK INTER + INTRA:          -8.498
REMARK INTER:                  -7.744
REMARK INTRA:                  -0.754
REMARK UNBOUND:                -0.169
REMARK SMILES N=C(NO)NCC[C@H](N)C(=O)O
REMARK SMILES IDX 7 1 8 2 9 3 10 6 11 7 12 8 6 10 5 11 2 12 3 13 1 14 4 18
REMARK H PARENT 9 4 9 5 12 9 5 15 3 16 1 17 4 19
REMARK INDEX MAP 5 1 2 2 1 3 13 4 14 5 3 6 4 7 12 8 24 9 6 10 7 11 8 12 9 13
REMARK INDEX MAP 10 14 20 15 21 16 22 17 11 18 23 19
ROOT
ATOM      1  C   UNL     1      26.091  -9.805  -6.840  1.00  0.00     0.052 C 
ENDROOT
BRANCH   1   2
ATOM      2  C   UNL     1      25.549 -11.154  -7.261  1.00  0.00     0.163 C 
BRANCH   2   3
ATOM      3  N   UNL     1      24.142 -10.960  -7.565  1.00  0.00    -0.318 NA
ATOM      4  H   UNL     1      23.971 -11.184  -8.556  1.00  0.00     0.119 HD
ATOM      5  H   UNL     1      23.573 -11.579  -6.970  1.00  0.00     0.119 HD
ENDBRANCH   2   3
BRANCH   2   6
ATOM      6  C   UNL     1      25.768 -12.199  -6.154  1.00  0.00     0.320 C 
ATOM      7  O   UNL     1      26.778 -12.848  -5.979  1.00  0.00    -0.251 OA
BRANCH   6   8
ATOM      8  O   UNL     1      24.678 -12.328  -5.365  1.00  0.00    -0.480 OA
ATOM      9  H   UNL     1      24.137 -13.157  -5.399  1.00  0.00     0.296 HD
ENDBRANCH   6   8
ENDBRANCH   2   6
ENDBRANCH   1   2
BRANCH   1  10
ATOM     10  C   UNL     1      25.898  -9.134  -5.521  1.00  0.00     0.118 C 
BRANCH  10  11
ATOM     11  N   UNL     1      24.491  -8.974  -5.086  1.00  0.00    -0.355 N 
ATOM     12  C   UNL     1      23.901  -9.391  -3.934  1.00  0.00     0.212 C 
ATOM     13  N   UNL     1      24.681 -10.081  -2.963  1.00  0.00    -0.238 N 
ATOM     14  N   UNL     1      22.599  -9.195  -3.633  1.00  0.00    -0.268 NA
ATOM     15  H   UNL     1      23.876  -8.480  -5.747  1.00  0.00     0.163 HD
ATOM     16  H   UNL     1      25.681 -10.259  -3.137  1.00  0.00     0.198 HD
ATOM     17  H   UNL     1      22.220  -9.539  -2.739  1.00  0.00     0.191 HD
BRANCH  13  18
ATOM     18  O   UNL     1      24.138 -10.480  -1.873  1.00  0.00    -0.289 OA
ATOM     19  H   UNL     1      24.420 -11.411  -1.685  1.00  0.00     0.246 HD
ENDBRANCH  13  18
ENDBRANCH  10  11
ENDBRANCH   1  10
TORSDOF 7
ENDMDL
MODEL 17
REMARK VINA RESULT:    -6.290      3.279      6.220
REMARK INTER + INTRA:          -8.481
REMARK INTER:                  -8.019
REMARK INTRA:                  -0.462
REMARK UNBOUND:                -0.169
REMARK SMILES N=C(NO)NCC[C@H](N)C(=O)O
REMARK SMILES IDX 7 1 8 2 9 3 10 6 11 7 12 8 6 10 5 11 2 12 3 13 1 14 4 18
REMARK H PARENT 9 4 9 5 12 9 5 15 3 16 1 17 4 19
REMARK INDEX MAP 5 1 2 2 1 3 13 4 14 5 3 6 4 7 12 8 24 9 6 10 7 11 8 12 9 13
REMARK INDEX MAP 10 14 20 15 21 16 22 17 11 18 23 19
ROOT
ATOM      1  C   UNL     1      26.187 -10.537  -4.460  1.00  0.00     0.052 C 
ENDROOT
BRANCH   1   2
ATOM      2  C   UNL     1      25.554 -11.623  -3.617  1.00  0.00     0.163 C 
BRANCH   2   3
ATOM      3  N   UNL     1      24.664 -12.364  -4.496  1.00  0.00    -0.318 NA
ATOM      4  H   UNL     1      24.803 -13.374  -4.352  1.00  0.00     0.119 HD
ATOM      5  H   UNL     1      23.688 -12.118  -4.282  1.00  0.00     0.119 HD
ENDBRANCH   2   3
BRANCH   2   6
ATOM      6  C   UNL     1      24.813 -11.017  -2.413  1.00  0.00     0.320 C 
ATOM      7  O   UNL     1      24.088 -10.045  -2.442  1.00  0.00    -0.251 OA
BRANCH   6   8
ATOM      8  O   UNL     1      25.061 -11.703  -1.275  1.00  0.00    -0.480 OA
ATOM      9  H   UNL     1      25.606 -12.530  -1.304  1.00  0.00     0.296 HD
ENDBRANCH   6   8
ENDBRANCH   2   6
ENDBRANCH   1   2
BRANCH   1  10
ATOM     10  C   UNL     1      25.565  -9.816  -5.608  1.00  0.00     0.118 C 
BRANCH  10  11
ATOM     11  N   UNL     1      24.652  -8.707  -5.247  1.00  0.00    -0.355 N 
ATOM     12  C   UNL     1      24.951  -7.404  -4.989  1.00  0.00     0.212 C 
ATOM     13  N   UNL     1      26.306  -6.975  -5.060  1.00  0.00    -0.238 N 
ATOM     14  N   UNL     1      24.037  -6.466  -4.664  1.00  0.00    -0.268 NA
ATOM     15  H   UNL     1      23.656  -8.955  -5.182  1.00  0.00     0.163 HD
ATOM     16  H   UNL     1      27.048  -7.647  -5.304  1.00  0.00     0.198 HD
ATOM     17  H   UNL     1      24.336  -5.497  -4.482  1.00  0.00     0.191 HD
BRANCH  13  18
ATOM     18  O   UNL     1      26.602  -5.751  -4.818  1.00  0.00    -0.289 OA
ATOM     19  H   UNL     1      26.530  -5.224  -5.653  1.00  0.00     0.246 HD
ENDBRANCH  13  18
ENDBRANCH  10  11
ENDBRANCH   1  10
TORSDOF 7
ENDMDL
MODEL 18
REMARK VINA RESULT:    -6.055      4.376      5.318
REMARK INTER + INTRA:          -8.171
REMARK INTER:                  -7.275
REMARK INTRA:                  -0.895
REMARK UNBOUND:                -0.169
REMARK SMILES N=C(NO)NCC[C@H](N)C(=O)O
REMARK SMILES IDX 7 1 8 2 9 3 10 6 11 7 12 8 6 10 5 11 2 12 3 13 1 14 4 18
REMARK H PARENT 9 4 9 5 12 9 5 15 3 16 1 17 4 19
REMARK INDEX MAP 5 1 2 2 1 3 13 4 14 5 3 6 4 7 12 8 24 9 6 10 7 11 8 12 9 13
REMARK INDEX MAP 10 14 20 15 21 16 22 17 11 18 23 19
ROOT
ATOM      1  C   UNL     1      26.054  -8.762  -6.610  1.00  0.00     0.052 C 
ENDROOT
BRANCH   1   2
ATOM      2  C   UNL     1      26.872  -7.875  -5.697  1.00  0.00     0.163 C 
BRANCH   2   3
ATOM      3  N   UNL     1      27.175  -8.662  -4.514  1.00  0.00    -0.318 NA
ATOM      4  H   UNL     1      26.863  -9.633  -4.659  1.00  0.00     0.119 HD
ATOM      5  H   UNL     1      28.190  -8.650  -4.344  1.00  0.00     0.119 HD
ENDBRANCH   2   3
BRANCH   2   6
ATOM      6  C   UNL     1      26.104  -6.586  -5.359  1.00  0.00     0.320 C 
ATOM      7  O   UNL     1      24.903  -6.432  -5.442  1.00  0.00    -0.251 OA
BRANCH   6   8
ATOM      8  O   UNL     1      26.934  -5.602  -4.943  1.00  0.00    -0.480 OA
ATOM      9  H   UNL     1      27.112  -5.481  -3.976  1.00  0.00     0.296 HD
ENDBRANCH   6   8
ENDBRANCH   2   6
ENDBRANCH   1   2
BRANCH   1  10
ATOM     10  C   UNL     1      25.161  -9.886  -6.202  1.00  0.00     0.118 C 
BRANCH  10  11
ATOM     11  N   UNL     1      23.958  -9.498  -5.430  1.00  0.00    -0.355 N 
ATOM     12  C   UNL     1      23.757  -9.537  -4.085  1.00  0.00     0.212 C 
ATOM     13  N   UNL     1      24.804 -10.000  -3.239  1.00  0.00    -0.238 N 
ATOM     14  N   UNL     1      22.613  -9.159  -3.477  1.00  0.00    -0.268 NA
ATOM     15  H   UNL     1      23.165  -9.152  -5.988  1.00  0.00     0.163 HD
ATOM     16  H   UNL     1      25.701 -10.301  -3.647  1.00  0.00     0.198 HD
ATOM     17  H   UNL     1      22.532  -9.215  -2.452  1.00  0.00     0.191 HD
BRANCH  13  18
ATOM     18  O   UNL     1      24.628 -10.043  -1.970  1.00  0.00    -0.289 OA
ATOM     19  H   UNL     1      23.686  -9.822  -1.760  1.00  0.00     0.246 HD
ENDBRANCH  13  18
ENDBRANCH  10  11
ENDBRANCH   1  10
TORSDOF 7
ENDMDL
MODEL 19
REMARK VINA RESULT:    -6.037      3.125      5.676
REMARK INTER + INTRA:          -8.147
REMARK INTER:                  -7.834
REMARK INTRA:                  -0.313
REMARK UNBOUND:                -0.169
REMARK SMILES N=C(NO)NCC[C@H](N)C(=O)O
REMARK SMILES IDX 7 1 8 2 9 3 10 6 11 7 12 8 6 10 5 11 2 12 3 13 1 14 4 18
REMARK H PARENT 9 4 9 5 12 9 5 15 3 16 1 17 4 19
REMARK INDEX MAP 5 1 2 2 1 3 13 4 14 5 3 6 4 7 12 8 24 9 6 10 7 11 8 12 9 13
REMARK INDEX MAP 10 14 20 15 21 16 22 17 11 18 23 19
ROOT
ATOM      1  C   UNL     1      25.876 -11.300  -4.596  1.00  0.00     0.052 C 
ENDROOT
BRANCH   1   2
ATOM      2  C   UNL     1      25.118 -11.869  -5.776  1.00  0.00     0.163 C 
BRANCH   2   3
ATOM      3  N   UNL     1      25.849 -13.048  -6.210  1.00  0.00    -0.318 NA
ATOM      4  H   UNL     1      26.654 -12.759  -6.785  1.00  0.00     0.119 HD
ATOM      5  H   UNL     1      26.184 -13.567  -5.387  1.00  0.00     0.119 HD
ENDBRANCH   2   3
BRANCH   2   6
ATOM      6  C   UNL     1      24.984 -10.821  -6.894  1.00  0.00     0.320 C 
ATOM      7  O   UNL     1      25.897 -10.205  -7.403  1.00  0.00    -0.251 OA
BRANCH   6   8
ATOM      8  O   UNL     1      23.696 -10.648  -7.267  1.00  0.00    -0.480 OA
ATOM      9  H   UNL     1      23.139 -11.432  -7.504  1.00  0.00     0.296 HD
ENDBRANCH   6   8
ENDBRANCH   2   6
ENDBRANCH   1   2
BRANCH   1  10
ATOM     10  C   UNL     1      25.377 -10.301  -3.607  1.00  0.00     0.118 C 
BRANCH  10  11
ATOM     11  N   UNL     1      23.914 -10.068  -3.618  1.00  0.00    -0.355 N 
ATOM     12  C   UNL     1      23.231  -8.939  -3.952  1.00  0.00     0.212 C 
ATOM     13  N   UNL     1      23.956  -7.783  -4.358  1.00  0.00    -0.238 N 
ATOM     14  N   UNL     1      21.886  -8.829  -3.927  1.00  0.00    -0.268 NA
ATOM     15  H   UNL     1      23.335 -10.870  -3.335  1.00  0.00     0.163 HD
ATOM     16  H   UNL     1      24.986  -7.807  -4.397  1.00  0.00     0.198 HD
ATOM     17  H   UNL     1      21.437  -7.941  -4.193  1.00  0.00     0.191 HD
BRANCH  13  18
ATOM     18  O   UNL     1      23.327  -6.712  -4.673  1.00  0.00    -0.289 OA
ATOM     19  H   UNL     1      22.936  -6.814  -5.577  1.00  0.00     0.246 HD
ENDBRANCH  13  18
ENDBRANCH  10  11
ENDBRANCH   1  10
TORSDOF 7
ENDMDL
MODEL 20
REMARK VINA RESULT:    -5.928      2.887      4.369
REMARK INTER + INTRA:          -8.002
REMARK INTER:                  -7.132
REMARK INTRA:                  -0.870
REMARK UNBOUND:                -0.169
REMARK SMILES N=C(NO)NCC[C@H](N)C(=O)O
REMARK SMILES IDX 7 1 8 2 9 3 10 6 11 7 12 8 6 10 5 11 2 12 3 13 1 14 4 18
REMARK H PARENT 9 4 9 5 12 9 5 15 3 16 1 17 4 19
REMARK INDEX MAP 5 1 2 2 1 3 13 4 14 5 3 6 4 7 12 8 24 9 6 10 7 11 8 12 9 13
REMARK INDEX MAP 10 14 20 15 21 16 22 17 11 18 23 19
ROOT
ATOM      1  C   UNL     1      26.222 -12.614  -5.954  1.00  0.00     0.052 C 
ENDROOT
BRANCH   1   2
ATOM      2  C   UNL     1      26.357 -11.296  -6.686  1.00  0.00     0.163 C 
BRANCH   2   3
ATOM      3  N   UNL     1      26.778 -10.314  -5.701  1.00  0.00    -0.318 NA
ATOM      4  H   UNL     1      27.064  -9.448  -6.179  1.00  0.00     0.119 HD
ATOM      5  H   UNL     1      25.995 -10.111  -5.063  1.00  0.00     0.119 HD
ENDBRANCH   2   3
BRANCH   2   6
ATOM      6  C   UNL     1      25.030 -10.911  -7.363  1.00  0.00     0.320 C 
ATOM      7  O   UNL     1      24.634 -11.319  -8.435  1.00  0.00    -0.251 OA
BRANCH   6   8
ATOM      8  O   UNL     1      24.321 -10.037  -6.614  1.00  0.00    -0.480 OA
ATOM      9  H   UNL     1      24.014  -9.181  -7.009  1.00  0.00     0.296 HD
ENDBRANCH   6   8
ENDBRANCH   2   6
ENDBRANCH   1   2
BRANCH   1  10
ATOM     10  C   UNL     1      25.094 -13.041  -5.076  1.00  0.00     0.118 C 
BRANCH  10  11
ATOM     11  N   UNL     1      25.245 -12.718  -3.639  1.00  0.00    -0.355 N 
ATOM     12  C   UNL     1      24.939 -11.564  -2.986  1.00  0.00     0.212 C 
ATOM     13  N   UNL     1      24.392 -10.474  -3.720  1.00  0.00    -0.238 N 
ATOM     14  N   UNL     1      25.120 -11.370  -1.662  1.00  0.00    -0.268 NA
ATOM     15  H   UNL     1      25.636 -13.470  -3.054  1.00  0.00     0.163 HD
ATOM     16  H   UNL     1      24.231 -10.564  -4.733  1.00  0.00     0.198 HD
ATOM     17  H   UNL     1      24.864 -10.468  -1.234  1.00  0.00     0.191 HD
BRANCH  13  18
ATOM     18  O   UNL     1      24.100  -9.381  -3.117  1.00  0.00    -0.289 OA
ATOM     19  H   UNL     1      24.285  -8.615  -3.716  1.00  0.00     0.246 HD
ENDBRANCH  13  18
ENDBRANCH  10  11
ENDBRANCH   1  10
TORSDOF 7
ENDMDL
