REMARK SMILES CCCCCCCCCCCCCCCCCC(=O)[O-]
REMARK SMILES IDX 10 1 11 2 12 3 13 4 14 5 15 6 16 7 17 8 18 9 19 10 20 11
REMARK SMILES IDX 9 12 8 13 7 14 6 15 5 16 4 17 3 18 2 19 1 20
REMARK H PARENT
REMARK INDEX MAP 4 1 6 2 8 3 10 4 12 5 14 6 16 7 18 8 20 9 2 10 1 11 3 12 5 13
REMARK INDEX MAP 7 14 9 15 11 16 13 17 15 18 17 19 19 20
ROOT
ATOM      1  C   UNL     1       1.836   2.089   0.714  1.00  0.00     0.000 C 
ENDROOT
BRANCH   1   2
ATOM      2  C   UNL     1       2.474   1.249  -0.400  1.00  0.00     0.000 C 
BRANCH   2   3
ATOM      3  C   UNL     1       2.473  -0.250  -0.085  1.00  0.00     0.000 C 
BRANCH   3   4
ATOM      4  C   UNL     1       3.224  -1.092  -1.122  1.00  0.00     0.000 C 
BRANCH   4   5
ATOM      5  C   UNL     1       2.673  -1.046  -2.551  1.00  0.00     0.000 C 
BRANCH   5   6
ATOM      6  C   UNL     1       1.184  -1.373  -2.704  1.00  0.00     0.000 C 
BRANCH   6   7
ATOM      7  C   UNL     1       0.803  -2.761  -2.181  1.00  0.00     0.006 C 
BRANCH   7   8
ATOM      8  C   UNL     1      -0.678  -3.070  -2.389  1.00  0.00     0.053 C 
BRANCH   8   9
ATOM      9  C   UNL     1      -1.575  -2.201  -1.551  1.00  0.00     0.041 C 
ATOM     10  O   UNL     1      -2.412  -1.419  -1.968  1.00  0.00    -0.550 OA
ATOM     11  O   UNL     1      -1.395  -2.374  -0.229  1.00  0.00    -0.550 OA
ENDBRANCH   8   9
ENDBRANCH   7   8
ENDBRANCH   6   7
ENDBRANCH   5   6
ENDBRANCH   4   5
ENDBRANCH   3   4
ENDBRANCH   2   3
ENDBRANCH   1   2
BRANCH   1  12
ATOM     12  C   UNL     1       0.370   2.474   0.479  1.00  0.00     0.000 C 
BRANCH  12  13
ATOM     13  C   UNL     1      -0.585   1.286   0.378  1.00  0.00    -0.000 C 
BRANCH  13  14
ATOM     14  C   UNL     1      -2.056   1.695   0.255  1.00  0.00    -0.000 C 
BRANCH  14  15
ATOM     15  C   UNL     1      -2.649   2.421   1.467  1.00  0.00    -0.000 C 
BRANCH  15  16
ATOM     16  C   UNL     1      -2.520   1.691   2.808  1.00  0.00    -0.000 C 
BRANCH  16  17
ATOM     17  C   UNL     1      -3.188   0.314   2.817  1.00  0.00    -0.000 C 
BRANCH  17  18
ATOM     18  C   UNL     1      -3.097  -0.336   4.200  1.00  0.00    -0.000 C 
BRANCH  18  19
ATOM     19  C   UNL     1      -3.828  -1.678   4.288  1.00  0.00    -0.003 C 
ATOM     20  C   UNL     1      -3.220  -2.760   3.408  1.00  0.00     0.004 C 
ENDBRANCH  18  19
ENDBRANCH  17  18
ENDBRANCH  16  17
ENDBRANCH  15  16
ENDBRANCH  14  15
ENDBRANCH  13  14
ENDBRANCH  12  13
ENDBRANCH   1  12
TORSDOF 16
