MODEL 1
REMARK VINA RESULT:    -5.692      0.000      0.000
REMARK INTER + INTRA:         -11.918
REMARK INTER:                 -10.351
REMARK INTRA:                  -1.566
REMARK UNBOUND:                -1.566
REMARK SMILES CCCCC/C=C\C/C=C\CCCCCCCC(=O)[O-]
REMARK SMILES IDX 11 1 12 2 13 3 14 4 15 5 16 6 17 7 18 8 19 9 20 10 10 11
REMARK SMILES IDX 9 12 8 13 7 14 6 15 5 16 4 17 3 18 2 19 1 20
REMARK H PARENT
REMARK INDEX MAP 8 1 6 2 4 3 3 4 5 5 7 6 9 7 18 8 2 9 1 10 12 11 15 12 16 13
REMARK INDEX MAP 19 14 17 15 13 16 10 17 11 18 14 19 20 20
ROOT
ATOM      1  C   UNL     1      48.693  35.801  29.193  1.00  0.00     0.027 C 
ENDROOT
BRANCH   1   2
ATOM      2  C   UNL     1      49.205  35.816  30.638  1.00  0.00     0.004 C 
BRANCH   2   3
ATOM      3  C   UNL     1      48.651  34.668  31.489  1.00  0.00     0.000 C 
BRANCH   3   4
ATOM      4  C   UNL     1      47.250  34.947  32.043  1.00  0.00     0.000 C 
BRANCH   4   5
ATOM      5  C   UNL     1      47.147  36.277  32.793  1.00  0.00     0.000 C 
BRANCH   5   6
ATOM      6  C   UNL     1      45.715  36.823  32.757  1.00  0.00     0.006 C 
BRANCH   6   7
ATOM      7  C   UNL     1      44.711  35.872  33.407  1.00  0.00     0.053 C 
BRANCH   7   8
ATOM      8  C   UNL     1      43.536  36.585  34.031  1.00  0.00     0.041 C 
ATOM      9  O   UNL     1      42.357  36.308  33.870  1.00  0.00    -0.550 OA
ATOM     10  O   UNL     1      43.972  37.585  34.840  1.00  0.00    -0.550 OA
ENDBRANCH   7   8
ENDBRANCH   6   7
ENDBRANCH   5   6
ENDBRANCH   4   5
ENDBRANCH   3   4
ENDBRANCH   2   3
ENDBRANCH   1   2
BRANCH   1  11
ATOM     11  C   UNL     1      47.671  36.867  28.918  1.00  0.00    -0.031 C 
ATOM     12  C   UNL     1      47.344  37.285  27.686  1.00  0.00    -0.027 C 
BRANCH  12  13
ATOM     13  C   UNL     1      47.958  36.739  26.431  1.00  0.00     0.054 C 
BRANCH  13  14
ATOM     14  C   UNL     1      46.918  36.151  25.520  1.00  0.00    -0.027 C 
ATOM     15  C   UNL     1      46.486  34.883  25.610  1.00  0.00    -0.031 C 
BRANCH  15  16
ATOM     16  C   UNL     1      46.933  33.833  26.592  1.00  0.00     0.027 C 
BRANCH  16  17
ATOM     17  C   UNL     1      47.927  32.784  26.079  1.00  0.00     0.004 C 
BRANCH  17  18
ATOM     18  C   UNL     1      49.313  33.398  25.860  1.00  0.00     0.000 C 
BRANCH  18  19
ATOM     19  C   UNL     1      50.261  32.489  25.074  1.00  0.00    -0.003 C 
ATOM     20  C   UNL     1      49.552  31.363  24.338  1.00  0.00     0.004 C 
ENDBRANCH  18  19
ENDBRANCH  17  18
ENDBRANCH  16  17
ENDBRANCH  15  16
ENDBRANCH  13  14
ENDBRANCH  12  13
ENDBRANCH   1  11
TORSDOF 14
ENDMDL
MODEL 2
REMARK VINA RESULT:    -5.600      1.892      3.867
REMARK INTER + INTRA:         -11.750
REMARK INTER:                 -10.113
REMARK INTRA:                  -1.637
REMARK UNBOUND:                -1.566
REMARK SMILES CCCCC/C=C\C/C=C\CCCCCCCC(=O)[O-]
REMARK SMILES IDX 11 1 12 2 13 3 14 4 15 5 16 6 17 7 18 8 19 9 20 10 10 11
REMARK SMILES IDX 9 12 8 13 7 14 6 15 5 16 4 17 3 18 2 19 1 20
REMARK H PARENT
REMARK INDEX MAP 8 1 6 2 4 3 3 4 5 5 7 6 9 7 18 8 2 9 1 10 12 11 15 12 16 13
REMARK INDEX MAP 19 14 17 15 13 16 10 17 11 18 14 19 20 20
ROOT
ATOM      1  C   UNL     1      48.068  36.304  25.878  1.00  0.00     0.027 C 
ENDROOT
BRANCH   1   2
ATOM      2  C   UNL     1      48.048  37.819  26.112  1.00  0.00     0.004 C 
BRANCH   2   3
ATOM      3  C   UNL     1      47.927  38.202  27.591  1.00  0.00     0.000 C 
BRANCH   3   4
ATOM      4  C   UNL     1      48.444  37.117  28.543  1.00  0.00     0.000 C 
BRANCH   4   5
ATOM      5  C   UNL     1      47.446  36.751  29.645  1.00  0.00     0.000 C 
BRANCH   5   6
ATOM      6  C   UNL     1      47.796  35.400  30.281  1.00  0.00     0.006 C 
BRANCH   6   7
ATOM      7  C   UNL     1      48.303  35.545  31.715  1.00  0.00     0.053 C 
BRANCH   7   8
ATOM      8  C   UNL     1      47.235  36.002  32.679  1.00  0.00     0.041 C 
ATOM      9  O   UNL     1      47.256  37.027  33.343  1.00  0.00    -0.550 OA
ATOM     10  O   UNL     1      46.206  35.117  32.690  1.00  0.00    -0.550 OA
ENDBRANCH   7   8
ENDBRANCH   6   7
ENDBRANCH   5   6
ENDBRANCH   4   5
ENDBRANCH   3   4
ENDBRANCH   2   3
ENDBRANCH   1   2
BRANCH   1  11
ATOM     11  C   UNL     1      46.735  35.756  25.454  1.00  0.00    -0.031 C 
ATOM     12  C   UNL     1      46.250  34.575  25.867  1.00  0.00    -0.027 C 
BRANCH  12  13
ATOM     13  C   UNL     1      46.978  33.658  26.805  1.00  0.00     0.054 C 
BRANCH  13  14
ATOM     14  C   UNL     1      47.244  32.321  26.172  1.00  0.00    -0.027 C 
ATOM     15  C   UNL     1      48.339  32.051  25.444  1.00  0.00    -0.031 C 
BRANCH  15  16
ATOM     16  C   UNL     1      49.474  32.984  25.120  1.00  0.00     0.027 C 
BRANCH  16  17
ATOM     17  C   UNL     1      50.858  32.601  25.658  1.00  0.00     0.004 C 
BRANCH  17  18
ATOM     18  C   UNL     1      51.578  31.646  24.701  1.00  0.00     0.000 C 
BRANCH  18  19
ATOM     19  C   UNL     1      53.103  31.720  24.804  1.00  0.00    -0.003 C 
ATOM     20  C   UNL     1      53.608  33.014  25.422  1.00  0.00     0.004 C 
ENDBRANCH  18  19
ENDBRANCH  17  18
ENDBRANCH  16  17
ENDBRANCH  15  16
ENDBRANCH  13  14
ENDBRANCH  12  13
ENDBRANCH   1  11
TORSDOF 14
ENDMDL
MODEL 3
REMARK VINA RESULT:    -5.561      1.319      2.016
REMARK INTER + INTRA:         -11.678
REMARK INTER:                  -9.631
REMARK INTRA:                  -2.047
REMARK UNBOUND:                -1.566
REMARK SMILES CCCCC/C=C\C/C=C\CCCCCCCC(=O)[O-]
REMARK SMILES IDX 11 1 12 2 13 3 14 4 15 5 16 6 17 7 18 8 19 9 20 10 10 11
REMARK SMILES IDX 9 12 8 13 7 14 6 15 5 16 4 17 3 18 2 19 1 20
REMARK H PARENT
REMARK INDEX MAP 8 1 6 2 4 3 3 4 5 5 7 6 9 7 18 8 2 9 1 10 12 11 15 12 16 13
REMARK INDEX MAP 19 14 17 15 13 16 10 17 11 18 14 19 20 20
ROOT
ATOM      1  C   UNL     1      47.278  36.932  28.462  1.00  0.00     0.027 C 
ENDROOT
BRANCH   1   2
ATOM      2  C   UNL     1      48.600  36.560  29.142  1.00  0.00     0.004 C 
BRANCH   2   3
ATOM      3  C   UNL     1      48.791  35.048  29.309  1.00  0.00     0.000 C 
BRANCH   3   4
ATOM      4  C   UNL     1      48.435  34.544  30.712  1.00  0.00     0.000 C 
BRANCH   4   5
ATOM      5  C   UNL     1      49.147  35.308  31.830  1.00  0.00     0.000 C 
BRANCH   5   6
ATOM      6  C   UNL     1      48.245  35.452  33.062  1.00  0.00     0.006 C 
BRANCH   6   7
ATOM      7  C   UNL     1      46.759  35.387  32.709  1.00  0.00     0.053 C 
BRANCH   7   8
ATOM      8  C   UNL     1      46.035  36.689  32.949  1.00  0.00     0.041 C 
ATOM      9  O   UNL     1      44.842  36.891  32.780  1.00  0.00    -0.550 OA
ATOM     10  O   UNL     1      46.899  37.625  33.417  1.00  0.00    -0.550 OA
ENDBRANCH   7   8
ENDBRANCH   6   7
ENDBRANCH   5   6
ENDBRANCH   4   5
ENDBRANCH   3   4
ENDBRANCH   2   3
ENDBRANCH   1   2
BRANCH   1  11
ATOM     11  C   UNL     1      47.464  37.787  27.240  1.00  0.00    -0.031 C 
ATOM     12  C   UNL     1      47.753  37.298  26.025  1.00  0.00    -0.027 C 
BRANCH  12  13
ATOM     13  C   UNL     1      47.925  35.836  25.736  1.00  0.00     0.054 C 
BRANCH  13  14
ATOM     14  C   UNL     1      46.691  35.249  25.111  1.00  0.00    -0.027 C 
ATOM     15  C   UNL     1      46.040  34.187  25.612  1.00  0.00    -0.031 C 
BRANCH  15  16
ATOM     16  C   UNL     1      46.393  33.397  26.844  1.00  0.00     0.027 C 
BRANCH  16  17
ATOM     17  C   UNL     1      47.724  32.636  26.819  1.00  0.00     0.004 C 
BRANCH  17  18
ATOM     18  C   UNL     1      47.875  31.830  25.525  1.00  0.00     0.000 C 
BRANCH  18  19
ATOM     19  C   UNL     1      49.066  32.272  24.672  1.00  0.00    -0.003 C 
ATOM     20  C   UNL     1      50.185  32.913  25.477  1.00  0.00     0.004 C 
ENDBRANCH  18  19
ENDBRANCH  17  18
ENDBRANCH  16  17
ENDBRANCH  15  16
ENDBRANCH  13  14
ENDBRANCH  12  13
ENDBRANCH   1  11
TORSDOF 14
ENDMDL
MODEL 4
REMARK VINA RESULT:    -5.540      1.775      3.639
REMARK INTER + INTRA:         -11.641
REMARK INTER:                  -9.214
REMARK INTRA:                  -2.426
REMARK UNBOUND:                -1.566
REMARK SMILES CCCCC/C=C\C/C=C\CCCCCCCC(=O)[O-]
REMARK SMILES IDX 11 1 12 2 13 3 14 4 15 5 16 6 17 7 18 8 19 9 20 10 10 11
REMARK SMILES IDX 9 12 8 13 7 14 6 15 5 16 4 17 3 18 2 19 1 20
REMARK H PARENT
REMARK INDEX MAP 8 1 6 2 4 3 3 4 5 5 7 6 9 7 18 8 2 9 1 10 12 11 15 12 16 13
REMARK INDEX MAP 19 14 17 15 13 16 10 17 11 18 14 19 20 20
ROOT
ATOM      1  C   UNL     1      47.943  35.906  25.941  1.00  0.00     0.027 C 
ENDROOT
BRANCH   1   2
ATOM      2  C   UNL     1      47.548  37.353  26.258  1.00  0.00     0.004 C 
BRANCH   2   3
ATOM      3  C   UNL     1      48.089  37.848  27.604  1.00  0.00     0.000 C 
BRANCH   3   4
ATOM      4  C   UNL     1      47.492  37.108  28.806  1.00  0.00     0.000 C 
BRANCH   4   5
ATOM      5  C   UNL     1      48.515  36.262  29.568  1.00  0.00     0.000 C 
BRANCH   5   6
ATOM      6  C   UNL     1      47.824  35.303  30.544  1.00  0.00     0.006 C 
BRANCH   6   7
ATOM      7  C   UNL     1      48.191  35.588  32.000  1.00  0.00     0.053 C 
BRANCH   7   8
ATOM      8  C   UNL     1      47.043  36.151  32.803  1.00  0.00     0.041 C 
ATOM      9  O   UNL     1      47.000  37.255  33.322  1.00  0.00    -0.550 OA
ATOM     10  O   UNL     1      46.023  35.256  32.848  1.00  0.00    -0.550 OA
ENDBRANCH   7   8
ENDBRANCH   6   7
ENDBRANCH   5   6
ENDBRANCH   4   5
ENDBRANCH   3   4
ENDBRANCH   2   3
ENDBRANCH   1   2
BRANCH   1  11
ATOM     11  C   UNL     1      46.893  35.166  25.162  1.00  0.00    -0.031 C 
ATOM     12  C   UNL     1      46.163  34.160  25.666  1.00  0.00    -0.027 C 
BRANCH  12  13
ATOM     13  C   UNL     1      46.303  33.652  27.071  1.00  0.00     0.054 C 
BRANCH  13  14
ATOM     14  C   UNL     1      46.400  32.153  27.108  1.00  0.00    -0.027 C 
ATOM     15  C   UNL     1      47.334  31.488  27.806  1.00  0.00    -0.031 C 
BRANCH  15  16
ATOM     16  C   UNL     1      48.429  32.074  28.656  1.00  0.00     0.027 C 
BRANCH  16  17
ATOM     17  C   UNL     1      49.436  32.992  27.951  1.00  0.00     0.004 C 
BRANCH  17  18
ATOM     18  C   UNL     1      50.167  32.249  26.829  1.00  0.00     0.000 C 
BRANCH  18  19
ATOM     19  C   UNL     1      49.837  32.784  25.433  1.00  0.00    -0.003 C 
ATOM     20  C   UNL     1      49.513  31.692  24.425  1.00  0.00     0.004 C 
ENDBRANCH  18  19
ENDBRANCH  17  18
ENDBRANCH  16  17
ENDBRANCH  15  16
ENDBRANCH  13  14
ENDBRANCH  12  13
ENDBRANCH   1  11
TORSDOF 14
ENDMDL
MODEL 5
REMARK VINA RESULT:    -5.492      2.147      2.815
REMARK INTER + INTRA:         -11.553
REMARK INTER:                  -9.785
REMARK INTRA:                  -1.768
REMARK UNBOUND:                -1.566
REMARK SMILES CCCCC/C=C\C/C=C\CCCCCCCC(=O)[O-]
REMARK SMILES IDX 11 1 12 2 13 3 14 4 15 5 16 6 17 7 18 8 19 9 20 10 10 11
REMARK SMILES IDX 9 12 8 13 7 14 6 15 5 16 4 17 3 18 2 19 1 20
REMARK H PARENT
REMARK INDEX MAP 8 1 6 2 4 3 3 4 5 5 7 6 9 7 18 8 2 9 1 10 12 11 15 12 16 13
REMARK INDEX MAP 19 14 17 15 13 16 10 17 11 18 14 19 20 20
ROOT
ATOM      1  C   UNL     1      49.153  35.295  29.929  1.00  0.00     0.027 C 
ENDROOT
BRANCH   1   2
ATOM      2  C   UNL     1      50.142  35.670  31.039  1.00  0.00     0.004 C 
BRANCH   2   3
ATOM      3  C   UNL     1      50.238  34.615  32.147  1.00  0.00     0.000 C 
BRANCH   3   4
ATOM      4  C   UNL     1      49.313  34.898  33.336  1.00  0.00     0.000 C 
BRANCH   4   5
ATOM      5  C   UNL     1      49.061  33.670  34.214  1.00  0.00     0.000 C 
BRANCH   5   6
ATOM      6  C   UNL     1      47.562  33.372  34.331  1.00  0.00     0.006 C 
BRANCH   6   7
ATOM      7  C   UNL     1      46.719  34.246  33.402  1.00  0.00     0.053 C 
BRANCH   7   8
ATOM      8  C   UNL     1      45.312  34.462  33.905  1.00  0.00     0.041 C 
ATOM      9  O   UNL     1      44.864  34.079  34.974  1.00  0.00    -0.550 OA
ATOM     10  O   UNL     1      44.599  35.182  33.002  1.00  0.00    -0.550 OA
ENDBRANCH   7   8
ENDBRANCH   6   7
ENDBRANCH   5   6
ENDBRANCH   4   5
ENDBRANCH   3   4
ENDBRANCH   2   3
ENDBRANCH   1   2
BRANCH   1  11
ATOM     11  C   UNL     1      47.849  36.034  30.027  1.00  0.00    -0.031 C 
ATOM     12  C   UNL     1      47.486  37.018  29.190  1.00  0.00    -0.027 C 
BRANCH  12  13
ATOM     13  C   UNL     1      48.337  37.500  28.052  1.00  0.00     0.054 C 
BRANCH  13  14
ATOM     14  C   UNL     1      47.513  37.783  26.829  1.00  0.00    -0.027 C 
ATOM     15  C   UNL     1      47.216  36.857  25.904  1.00  0.00    -0.031 C 
BRANCH  15  16
ATOM     16  C   UNL     1      47.629  35.409  25.896  1.00  0.00     0.027 C 
BRANCH  16  17
ATOM     17  C   UNL     1      46.682  34.425  25.199  1.00  0.00     0.004 C 
BRANCH  17  18
ATOM     18  C   UNL     1      46.383  33.218  26.095  1.00  0.00     0.000 C 
BRANCH  18  19
ATOM     19  C   UNL     1      46.571  33.509  27.585  1.00  0.00    -0.003 C 
ATOM     20  C   UNL     1      46.675  32.255  28.440  1.00  0.00     0.004 C 
ENDBRANCH  18  19
ENDBRANCH  17  18
ENDBRANCH  16  17
ENDBRANCH  15  16
ENDBRANCH  13  14
ENDBRANCH  12  13
ENDBRANCH   1  11
TORSDOF 14
ENDMDL
MODEL 6
REMARK VINA RESULT:    -5.385      2.287      2.965
REMARK INTER + INTRA:         -11.359
REMARK INTER:                  -9.105
REMARK INTRA:                  -2.255
REMARK UNBOUND:                -1.566
REMARK SMILES CCCCC/C=C\C/C=C\CCCCCCCC(=O)[O-]
REMARK SMILES IDX 11 1 12 2 13 3 14 4 15 5 16 6 17 7 18 8 19 9 20 10 10 11
REMARK SMILES IDX 9 12 8 13 7 14 6 15 5 16 4 17 3 18 2 19 1 20
REMARK H PARENT
REMARK INDEX MAP 8 1 6 2 4 3 3 4 5 5 7 6 9 7 18 8 2 9 1 10 12 11 15 12 16 13
REMARK INDEX MAP 19 14 17 15 13 16 10 17 11 18 14 19 20 20
ROOT
ATOM      1  C   UNL     1      48.433  37.629  28.286  1.00  0.00     0.027 C 
ENDROOT
BRANCH   1   2
ATOM      2  C   UNL     1      47.312  37.188  29.233  1.00  0.00     0.004 C 
BRANCH   2   3
ATOM      3  C   UNL     1      47.669  35.950  30.062  1.00  0.00     0.000 C 
BRANCH   3   4
ATOM      4  C   UNL     1      48.811  35.125  29.457  1.00  0.00     0.000 C 
BRANCH   4   5
ATOM      5  C   UNL     1      49.082  33.821  30.211  1.00  0.00     0.000 C 
BRANCH   5   6
ATOM      6  C   UNL     1      49.470  34.095  31.669  1.00  0.00     0.006 C 
BRANCH   6   7
ATOM      7  C   UNL     1      48.595  33.328  32.660  1.00  0.00     0.053 C 
BRANCH   7   8
ATOM      8  C   UNL     1      47.272  34.004  32.929  1.00  0.00     0.041 C 
ATOM      9  O   UNL     1      46.181  33.637  32.522  1.00  0.00    -0.550 OA
ATOM     10  O   UNL     1      47.454  35.085  33.730  1.00  0.00    -0.550 OA
ENDBRANCH   7   8
ENDBRANCH   6   7
ENDBRANCH   5   6
ENDBRANCH   4   5
ENDBRANCH   3   4
ENDBRANCH   2   3
ENDBRANCH   1   2
BRANCH   1  11
ATOM     11  C   UNL     1      47.924  38.164  26.978  1.00  0.00    -0.031 C 
ATOM     12  C   UNL     1      47.656  37.394  25.912  1.00  0.00    -0.027 C 
BRANCH  12  13
ATOM     13  C   UNL     1      47.830  35.904  25.896  1.00  0.00     0.054 C 
BRANCH  13  14
ATOM     14  C   UNL     1      46.634  35.216  25.301  1.00  0.00    -0.027 C 
ATOM     15  C   UNL     1      46.062  34.127  25.839  1.00  0.00    -0.031 C 
BRANCH  15  16
ATOM     16  C   UNL     1      46.478  33.400  27.089  1.00  0.00     0.027 C 
BRANCH  16  17
ATOM     17  C   UNL     1      47.711  32.493  26.982  1.00  0.00     0.004 C 
BRANCH  17  18
ATOM     18  C   UNL     1      47.801  31.845  25.598  1.00  0.00     0.000 C 
BRANCH  18  19
ATOM     19  C   UNL     1      49.014  32.311  24.788  1.00  0.00    -0.003 C 
ATOM     20  C   UNL     1      50.119  32.912  25.643  1.00  0.00     0.004 C 
ENDBRANCH  18  19
ENDBRANCH  17  18
ENDBRANCH  16  17
ENDBRANCH  15  16
ENDBRANCH  13  14
ENDBRANCH  12  13
ENDBRANCH   1  11
TORSDOF 14
ENDMDL
MODEL 7
REMARK VINA RESULT:    -5.319      4.866      8.554
REMARK INTER + INTRA:         -11.239
REMARK INTER:                  -9.658
REMARK INTRA:                  -1.581
REMARK UNBOUND:                -1.566
REMARK SMILES CCCCC/C=C\C/C=C\CCCCCCCC(=O)[O-]
REMARK SMILES IDX 11 1 12 2 13 3 14 4 15 5 16 6 17 7 18 8 19 9 20 10 10 11
REMARK SMILES IDX 9 12 8 13 7 14 6 15 5 16 4 17 3 18 2 19 1 20
REMARK H PARENT
REMARK INDEX MAP 8 1 6 2 4 3 3 4 5 5 7 6 9 7 18 8 2 9 1 10 12 11 15 12 16 13
REMARK INDEX MAP 19 14 17 15 13 16 10 17 11 18 14 19 20 20
ROOT
ATOM      1  C   UNL     1      46.616  33.721  26.569  1.00  0.00     0.027 C 
ENDROOT
BRANCH   1   2
ATOM      2  C   UNL     1      47.609  32.648  26.109  1.00  0.00     0.004 C 
BRANCH   2   3
ATOM      3  C   UNL     1      49.063  32.975  26.465  1.00  0.00     0.000 C 
BRANCH   3   4
ATOM      4  C   UNL     1      49.989  33.030  25.245  1.00  0.00     0.000 C 
BRANCH   4   5
ATOM      5  C   UNL     1      50.505  31.655  24.813  1.00  0.00     0.000 C 
BRANCH   5   6
ATOM      6  C   UNL     1      52.031  31.661  24.658  1.00  0.00     0.006 C 
BRANCH   6   7
ATOM      7  C   UNL     1      52.735  32.328  25.839  1.00  0.00     0.053 C 
BRANCH   7   8
ATOM      8  C   UNL     1      54.068  32.932  25.470  1.00  0.00     0.041 C 
ATOM      9  O   UNL     1      54.747  32.639  24.498  1.00  0.00    -0.550 OA
ATOM     10  O   UNL     1      54.410  33.892  26.368  1.00  0.00    -0.550 OA
ENDBRANCH   7   8
ENDBRANCH   6   7
ENDBRANCH   5   6
ENDBRANCH   4   5
ENDBRANCH   3   4
ENDBRANCH   2   3
ENDBRANCH   1   2
BRANCH   1  11
ATOM     11  C   UNL     1      46.325  34.748  25.512  1.00  0.00    -0.031 C 
ATOM     12  C   UNL     1      46.916  35.951  25.460  1.00  0.00    -0.027 C 
BRANCH  12  13
ATOM     13  C   UNL     1      47.941  36.420  26.451  1.00  0.00     0.054 C 
BRANCH  13  14
ATOM     14  C   UNL     1      47.314  37.225  27.553  1.00  0.00    -0.027 C 
ATOM     15  C   UNL     1      47.625  37.074  28.850  1.00  0.00    -0.031 C 
BRANCH  15  16
ATOM     16  C   UNL     1      48.616  36.111  29.446  1.00  0.00     0.027 C 
BRANCH  16  17
ATOM     17  C   UNL     1      48.070  35.092  30.454  1.00  0.00     0.004 C 
BRANCH  17  18
ATOM     18  C   UNL     1      48.225  35.601  31.891  1.00  0.00     0.000 C 
BRANCH  18  19
ATOM     19  C   UNL     1      46.910  35.612  32.675  1.00  0.00    -0.003 C 
ATOM     20  C   UNL     1      46.176  36.943  32.609  1.00  0.00     0.004 C 
ENDBRANCH  18  19
ENDBRANCH  17  18
ENDBRANCH  16  17
ENDBRANCH  15  16
ENDBRANCH  13  14
ENDBRANCH  12  13
ENDBRANCH   1  11
TORSDOF 14
ENDMDL
MODEL 8
REMARK VINA RESULT:    -5.284      1.254      2.600
REMARK INTER + INTRA:         -11.174
REMARK INTER:                  -9.821
REMARK INTRA:                  -1.353
REMARK UNBOUND:                -1.566
REMARK SMILES CCCCC/C=C\C/C=C\CCCCCCCC(=O)[O-]
REMARK SMILES IDX 11 1 12 2 13 3 14 4 15 5 16 6 17 7 18 8 19 9 20 10 10 11
REMARK SMILES IDX 9 12 8 13 7 14 6 15 5 16 4 17 3 18 2 19 1 20
REMARK H PARENT
REMARK INDEX MAP 8 1 6 2 4 3 3 4 5 5 7 6 9 7 18 8 2 9 1 10 12 11 15 12 16 13
REMARK INDEX MAP 19 14 17 15 13 16 10 17 11 18 14 19 20 20
ROOT
ATOM      1  C   UNL     1      48.385  34.663  31.796  1.00  0.00     0.027 C 
ENDROOT
BRANCH   1   2
ATOM      2  C   UNL     1      48.809  34.365  33.239  1.00  0.00     0.004 C 
BRANCH   2   3
ATOM      3  C   UNL     1      47.674  33.800  34.100  1.00  0.00     0.000 C 
BRANCH   3   4
ATOM      4  C   UNL     1      46.754  32.840  33.337  1.00  0.00     0.000 C 
BRANCH   4   5
ATOM      5  C   UNL     1      45.274  33.217  33.431  1.00  0.00     0.000 C 
BRANCH   5   6
ATOM      6  C   UNL     1      45.078  34.486  34.269  1.00  0.00     0.006 C 
BRANCH   6   7
ATOM      7  C   UNL     1      44.614  35.675  33.429  1.00  0.00     0.053 C 
BRANCH   7   8
ATOM      8  C   UNL     1      43.450  36.416  34.041  1.00  0.00     0.041 C 
ATOM      9  O   UNL     1      42.266  36.179  33.853  1.00  0.00    -0.550 OA
ATOM     10  O   UNL     1      43.901  37.388  34.874  1.00  0.00    -0.550 OA
ENDBRANCH   7   8
ENDBRANCH   6   7
ENDBRANCH   5   6
ENDBRANCH   4   5
ENDBRANCH   3   4
ENDBRANCH   2   3
ENDBRANCH   1   2
BRANCH   1  11
ATOM     11  C   UNL     1      49.343  35.570  31.076  1.00  0.00    -0.031 C 
ATOM     12  C   UNL     1      49.086  36.127  29.883  1.00  0.00    -0.027 C 
BRANCH  12  13
ATOM     13  C   UNL     1      47.810  35.915  29.122  1.00  0.00     0.054 C 
BRANCH  13  14
ATOM     14  C   UNL     1      47.362  37.175  28.437  1.00  0.00    -0.027 C 
ATOM     15  C   UNL     1      47.358  37.333  27.104  1.00  0.00    -0.031 C 
BRANCH  15  16
ATOM     16  C   UNL     1      47.784  36.332  26.064  1.00  0.00     0.027 C 
BRANCH  16  17
ATOM     17  C   UNL     1      46.671  35.531  25.379  1.00  0.00     0.004 C 
BRANCH  17  18
ATOM     18  C   UNL     1      46.585  34.110  25.946  1.00  0.00     0.000 C 
BRANCH  18  19
ATOM     19  C   UNL     1      47.952  33.496  26.254  1.00  0.00    -0.003 C 
ATOM     20  C   UNL     1      48.700  33.028  25.015  1.00  0.00     0.004 C 
ENDBRANCH  18  19
ENDBRANCH  17  18
ENDBRANCH  16  17
ENDBRANCH  15  16
ENDBRANCH  13  14
ENDBRANCH  12  13
ENDBRANCH   1  11
TORSDOF 14
ENDMDL
MODEL 9
REMARK VINA RESULT:    -5.272      1.808      2.292
REMARK INTER + INTRA:         -11.153
REMARK INTER:                  -9.417
REMARK INTRA:                  -1.736
REMARK UNBOUND:                -1.566
REMARK SMILES CCCCC/C=C\C/C=C\CCCCCCCC(=O)[O-]
REMARK SMILES IDX 11 1 12 2 13 3 14 4 15 5 16 6 17 7 18 8 19 9 20 10 10 11
REMARK SMILES IDX 9 12 8 13 7 14 6 15 5 16 4 17 3 18 2 19 1 20
REMARK H PARENT
REMARK INDEX MAP 8 1 6 2 4 3 3 4 5 5 7 6 9 7 18 8 2 9 1 10 12 11 15 12 16 13
REMARK INDEX MAP 19 14 17 15 13 16 10 17 11 18 14 19 20 20
ROOT
ATOM      1  C   UNL     1      48.347  35.042  29.320  1.00  0.00     0.027 C 
ENDROOT
BRANCH   1   2
ATOM      2  C   UNL     1      47.693  34.752  30.675  1.00  0.00     0.004 C 
BRANCH   2   3
ATOM      3  C   UNL     1      47.610  35.982  31.584  1.00  0.00     0.000 C 
BRANCH   3   4
ATOM      4  C   UNL     1      48.019  35.694  33.033  1.00  0.00     0.000 C 
BRANCH   4   5
ATOM      5  C   UNL     1      48.547  34.273  33.243  1.00  0.00     0.000 C 
BRANCH   5   6
ATOM      6  C   UNL     1      47.885  33.611  34.458  1.00  0.00     0.006 C 
BRANCH   6   7
ATOM      7  C   UNL     1      46.718  32.707  34.065  1.00  0.00     0.053 C 
BRANCH   7   8
ATOM      8  C   UNL     1      45.446  33.469  33.779  1.00  0.00     0.041 C 
ATOM      9  O   UNL     1      44.806  33.438  32.740  1.00  0.00    -0.550 OA
ATOM     10  O   UNL     1      45.081  34.192  34.868  1.00  0.00    -0.550 OA
ENDBRANCH   7   8
ENDBRANCH   6   7
ENDBRANCH   5   6
ENDBRANCH   4   5
ENDBRANCH   3   4
ENDBRANCH   2   3
ENDBRANCH   1   2
BRANCH   1  11
ATOM     11  C   UNL     1      48.790  36.470  29.173  1.00  0.00    -0.031 C 
ATOM     12  C   UNL     1      48.208  37.348  28.342  1.00  0.00    -0.027 C 
BRANCH  12  13
ATOM     13  C   UNL     1      47.043  37.013  27.458  1.00  0.00     0.054 C 
BRANCH  13  14
ATOM     14  C   UNL     1      47.462  36.878  26.022  1.00  0.00    -0.027 C 
ATOM     15  C   UNL     1      47.084  35.860  25.233  1.00  0.00    -0.031 C 
BRANCH  15  16
ATOM     16  C   UNL     1      46.206  34.695  25.602  1.00  0.00     0.027 C 
BRANCH  16  17
ATOM     17  C   UNL     1      46.896  33.487  26.247  1.00  0.00     0.004 C 
BRANCH  17  18
ATOM     18  C   UNL     1      48.407  33.521  26.006  1.00  0.00     0.000 C 
BRANCH  18  19
ATOM     19  C   UNL     1      48.863  32.588  24.882  1.00  0.00    -0.003 C 
ATOM     20  C   UNL     1      50.364  32.342  24.867  1.00  0.00     0.004 C 
ENDBRANCH  18  19
ENDBRANCH  17  18
ENDBRANCH  16  17
ENDBRANCH  15  16
ENDBRANCH  13  14
ENDBRANCH  12  13
ENDBRANCH   1  11
TORSDOF 14
ENDMDL
MODEL 10
REMARK VINA RESULT:    -5.241      1.486      2.410
REMARK INTER + INTRA:         -11.096
REMARK INTER:                  -9.041
REMARK INTRA:                  -2.056
REMARK UNBOUND:                -1.566
REMARK SMILES CCCCC/C=C\C/C=C\CCCCCCCC(=O)[O-]
REMARK SMILES IDX 11 1 12 2 13 3 14 4 15 5 16 6 17 7 18 8 19 9 20 10 10 11
REMARK SMILES IDX 9 12 8 13 7 14 6 15 5 16 4 17 3 18 2 19 1 20
REMARK H PARENT
REMARK INDEX MAP 8 1 6 2 4 3 3 4 5 5 7 6 9 7 18 8 2 9 1 10 12 11 15 12 16 13
REMARK INDEX MAP 19 14 17 15 13 16 10 17 11 18 14 19 20 20
ROOT
ATOM      1  C   UNL     1      47.697  36.135  28.952  1.00  0.00     0.027 C 
ENDROOT
BRANCH   1   2
ATOM      2  C   UNL     1      48.842  35.805  29.916  1.00  0.00     0.004 C 
BRANCH   2   3
ATOM      3  C   UNL     1      48.938  34.314  30.256  1.00  0.00     0.000 C 
BRANCH   3   4
ATOM      4  C   UNL     1      48.642  34.008  31.728  1.00  0.00     0.000 C 
BRANCH   4   5
ATOM      5  C   UNL     1      47.203  34.333  32.138  1.00  0.00     0.000 C 
BRANCH   5   6
ATOM      6  C   UNL     1      47.150  35.582  33.026  1.00  0.00     0.006 C 
BRANCH   6   7
ATOM      7  C   UNL     1      45.816  36.319  32.915  1.00  0.00     0.053 C 
BRANCH   7   8
ATOM      8  C   UNL     1      44.683  35.603  33.609  1.00  0.00     0.041 C 
ATOM      9  O   UNL     1      44.783  34.860  34.573  1.00  0.00    -0.550 OA
ATOM     10  O   UNL     1      43.500  35.922  33.023  1.00  0.00    -0.550 OA
ENDBRANCH   7   8
ENDBRANCH   6   7
ENDBRANCH   5   6
ENDBRANCH   4   5
ENDBRANCH   3   4
ENDBRANCH   2   3
ENDBRANCH   1   2
BRANCH   1  11
ATOM     11  C   UNL     1      47.808  37.508  28.352  1.00  0.00    -0.031 C 
ATOM     12  C   UNL     1      48.012  37.736  27.046  1.00  0.00    -0.027 C 
BRANCH  12  13
ATOM     13  C   UNL     1      48.154  36.649  26.023  1.00  0.00     0.054 C 
BRANCH  13  14
ATOM     14  C   UNL     1      46.815  36.152  25.558  1.00  0.00    -0.027 C 
ATOM     15  C   UNL     1      46.542  34.856  25.333  1.00  0.00    -0.031 C 
BRANCH  15  16
ATOM     16  C   UNL     1      47.475  33.686  25.489  1.00  0.00     0.027 C 
BRANCH  16  17
ATOM     17  C   UNL     1      47.589  33.075  26.892  1.00  0.00     0.004 C 
BRANCH  17  18
ATOM     18  C   UNL     1      46.230  33.058  27.598  1.00  0.00     0.000 C 
BRANCH  18  19
ATOM     19  C   UNL     1      45.908  31.715  28.258  1.00  0.00    -0.003 C 
ATOM     20  C   UNL     1      46.622  31.503  29.583  1.00  0.00     0.004 C 
ENDBRANCH  18  19
ENDBRANCH  17  18
ENDBRANCH  16  17
ENDBRANCH  15  16
ENDBRANCH  13  14
ENDBRANCH  12  13
ENDBRANCH   1  11
TORSDOF 14
ENDMDL
MODEL 11
REMARK VINA RESULT:    -5.229      2.409      4.886
REMARK INTER + INTRA:         -11.074
REMARK INTER:                  -8.188
REMARK INTRA:                  -2.886
REMARK UNBOUND:                -1.566
REMARK SMILES CCCCC/C=C\C/C=C\CCCCCCCC(=O)[O-]
REMARK SMILES IDX 11 1 12 2 13 3 14 4 15 5 16 6 17 7 18 8 19 9 20 10 10 11
REMARK SMILES IDX 9 12 8 13 7 14 6 15 5 16 4 17 3 18 2 19 1 20
REMARK H PARENT
REMARK INDEX MAP 8 1 6 2 4 3 3 4 5 5 7 6 9 7 18 8 2 9 1 10 12 11 15 12 16 13
REMARK INDEX MAP 19 14 17 15 13 16 10 17 11 18 14 19 20 20
ROOT
ATOM      1  C   UNL     1      47.343  34.353  25.257  1.00  0.00     0.027 C 
ENDROOT
BRANCH   1   2
ATOM      2  C   UNL     1      46.649  35.672  25.613  1.00  0.00     0.004 C 
BRANCH   2   3
ATOM      3  C   UNL     1      47.626  36.787  26.001  1.00  0.00     0.000 C 
BRANCH   3   4
ATOM      4  C   UNL     1      47.279  37.461  27.333  1.00  0.00     0.000 C 
BRANCH   4   5
ATOM      5  C   UNL     1      48.310  37.194  28.434  1.00  0.00     0.000 C 
BRANCH   5   6
ATOM      6  C   UNL     1      47.978  35.910  29.203  1.00  0.00     0.006 C 
BRANCH   6   7
ATOM      7  C   UNL     1      48.824  35.750  30.465  1.00  0.00     0.053 C 
BRANCH   7   8
ATOM      8  C   UNL     1      47.998  35.639  31.723  1.00  0.00     0.041 C 
ATOM      9  O   UNL     1      48.086  36.357  32.708  1.00  0.00    -0.550 OA
ATOM     10  O   UNL     1      47.099  34.629  31.604  1.00  0.00    -0.550 OA
ENDBRANCH   7   8
ENDBRANCH   6   7
ENDBRANCH   5   6
ENDBRANCH   4   5
ENDBRANCH   3   4
ENDBRANCH   2   3
ENDBRANCH   1   2
BRANCH   1  11
ATOM     11  C   UNL     1      48.754  34.273  25.768  1.00  0.00    -0.031 C 
ATOM     12  C   UNL     1      49.567  33.228  25.550  1.00  0.00    -0.027 C 
BRANCH  12  13
ATOM     13  C   UNL     1      49.168  32.012  24.768  1.00  0.00     0.054 C 
BRANCH  13  14
ATOM     14  C   UNL     1      49.207  30.773  25.618  1.00  0.00    -0.027 C 
ATOM     15  C   UNL     1      48.144  30.300  26.287  1.00  0.00    -0.031 C 
BRANCH  15  16
ATOM     16  C   UNL     1      46.757  30.882  26.328  1.00  0.00     0.027 C 
BRANCH  16  17
ATOM     17  C   UNL     1      46.210  31.268  27.707  1.00  0.00     0.004 C 
BRANCH  17  18
ATOM     18  C   UNL     1      47.024  32.410  28.324  1.00  0.00     0.000 C 
BRANCH  18  19
ATOM     19  C   UNL     1      47.959  31.950  29.445  1.00  0.00    -0.003 C 
ATOM     20  C   UNL     1      49.409  32.356  29.231  1.00  0.00     0.004 C 
ENDBRANCH  18  19
ENDBRANCH  17  18
ENDBRANCH  16  17
ENDBRANCH  15  16
ENDBRANCH  13  14
ENDBRANCH  12  13
ENDBRANCH   1  11
TORSDOF 14
ENDMDL
MODEL 12
REMARK VINA RESULT:    -5.226      3.053      4.064
REMARK INTER + INTRA:         -11.070
REMARK INTER:                  -9.231
REMARK INTRA:                  -1.839
REMARK UNBOUND:                -1.566
REMARK SMILES CCCCC/C=C\C/C=C\CCCCCCCC(=O)[O-]
REMARK SMILES IDX 11 1 12 2 13 3 14 4 15 5 16 6 17 7 18 8 19 9 20 10 10 11
REMARK SMILES IDX 9 12 8 13 7 14 6 15 5 16 4 17 3 18 2 19 1 20
REMARK H PARENT
REMARK INDEX MAP 8 1 6 2 4 3 3 4 5 5 7 6 9 7 18 8 2 9 1 10 12 11 15 12 16 13
REMARK INDEX MAP 19 14 17 15 13 16 10 17 11 18 14 19 20 20
ROOT
ATOM      1  C   UNL     1      48.457  37.829  28.262  1.00  0.00     0.027 C 
ENDROOT
BRANCH   1   2
ATOM      2  C   UNL     1      47.307  37.311  29.135  1.00  0.00     0.004 C 
BRANCH   2   3
ATOM      3  C   UNL     1      47.726  36.180  30.081  1.00  0.00     0.000 C 
BRANCH   3   4
ATOM      4  C   UNL     1      49.026  35.487  29.659  1.00  0.00     0.000 C 
BRANCH   4   5
ATOM      5  C   UNL     1      49.253  34.145  30.360  1.00  0.00     0.000 C 
BRANCH   5   6
ATOM      6  C   UNL     1      50.289  34.275  31.482  1.00  0.00     0.006 C 
BRANCH   6   7
ATOM      7  C   UNL     1      51.098  35.568  31.382  1.00  0.00     0.053 C 
BRANCH   7   8
ATOM      8  C   UNL     1      51.081  36.379  32.655  1.00  0.00     0.041 C 
ATOM      9  O   UNL     1      52.057  36.717  33.306  1.00  0.00    -0.550 OA
ATOM     10  O   UNL     1      49.806  36.718  32.976  1.00  0.00    -0.550 OA
ENDBRANCH   7   8
ENDBRANCH   6   7
ENDBRANCH   5   6
ENDBRANCH   4   5
ENDBRANCH   3   4
ENDBRANCH   2   3
ENDBRANCH   1   2
BRANCH   1  11
ATOM     11  C   UNL     1      48.019  38.208  26.876  1.00  0.00    -0.031 C 
ATOM     12  C   UNL     1      47.550  37.329  25.977  1.00  0.00    -0.027 C 
BRANCH  12  13
ATOM     13  C   UNL     1      47.401  35.861  26.246  1.00  0.00     0.054 C 
BRANCH  13  14
ATOM     14  C   UNL     1      46.490  35.207  25.246  1.00  0.00    -0.027 C 
ATOM     15  C   UNL     1      45.957  33.987  25.416  1.00  0.00    -0.031 C 
BRANCH  15  16
ATOM     16  C   UNL     1      46.151  33.061  26.587  1.00  0.00     0.027 C 
BRANCH  16  17
ATOM     17  C   UNL     1      47.298  32.048  26.484  1.00  0.00     0.004 C 
BRANCH  17  18
ATOM     18  C   UNL     1      48.514  32.509  27.292  1.00  0.00     0.000 C 
BRANCH  18  19
ATOM     19  C   UNL     1      49.747  32.783  26.428  1.00  0.00    -0.003 C 
ATOM     20  C   UNL     1      49.501  32.591  24.940  1.00  0.00     0.004 C 
ENDBRANCH  18  19
ENDBRANCH  17  18
ENDBRANCH  16  17
ENDBRANCH  15  16
ENDBRANCH  13  14
ENDBRANCH  12  13
ENDBRANCH   1  11
TORSDOF 14
ENDMDL
MODEL 13
REMARK VINA RESULT:    -5.226      2.480      4.238
REMARK INTER + INTRA:         -11.070
REMARK INTER:                  -9.303
REMARK INTRA:                  -1.766
REMARK UNBOUND:                -1.566
REMARK SMILES CCCCC/C=C\C/C=C\CCCCCCCC(=O)[O-]
REMARK SMILES IDX 11 1 12 2 13 3 14 4 15 5 16 6 17 7 18 8 19 9 20 10 10 11
REMARK SMILES IDX 9 12 8 13 7 14 6 15 5 16 4 17 3 18 2 19 1 20
REMARK H PARENT
REMARK INDEX MAP 8 1 6 2 4 3 3 4 5 5 7 6 9 7 18 8 2 9 1 10 12 11 15 12 16 13
REMARK INDEX MAP 19 14 17 15 13 16 10 17 11 18 14 19 20 20
ROOT
ATOM      1  C   UNL     1      48.497  32.760  28.417  1.00  0.00     0.027 C 
ENDROOT
BRANCH   1   2
ATOM      2  C   UNL     1      49.108  33.055  29.791  1.00  0.00     0.004 C 
BRANCH   2   3
ATOM      3  C   UNL     1      48.824  31.963  30.828  1.00  0.00     0.000 C 
BRANCH   3   4
ATOM      4  C   UNL     1      47.761  32.365  31.856  1.00  0.00     0.000 C 
BRANCH   4   5
ATOM      5  C   UNL     1      46.881  31.196  32.307  1.00  0.00     0.000 C 
BRANCH   5   6
ATOM      6  C   UNL     1      46.507  31.325  33.788  1.00  0.00     0.006 C 
BRANCH   6   7
ATOM      7  C   UNL     1      45.206  32.100  33.996  1.00  0.00     0.053 C 
BRANCH   7   8
ATOM      8  C   UNL     1      45.421  33.475  34.581  1.00  0.00     0.041 C 
ATOM      9  O   UNL     1      44.600  34.378  34.618  1.00  0.00    -0.550 OA
ATOM     10  O   UNL     1      46.671  33.570  35.103  1.00  0.00    -0.550 OA
ENDBRANCH   7   8
ENDBRANCH   6   7
ENDBRANCH   5   6
ENDBRANCH   4   5
ENDBRANCH   3   4
ENDBRANCH   2   3
ENDBRANCH   1   2
BRANCH   1  11
ATOM     11  C   UNL     1      47.000  32.894  28.396  1.00  0.00    -0.031 C 
ATOM     12  C   UNL     1      46.292  33.171  27.291  1.00  0.00    -0.027 C 
BRANCH  12  13
ATOM     13  C   UNL     1      46.907  33.380  25.938  1.00  0.00     0.054 C 
BRANCH  13  14
ATOM     14  C   UNL     1      46.270  34.533  25.216  1.00  0.00    -0.027 C 
ATOM     15  C   UNL     1      46.708  35.798  25.307  1.00  0.00    -0.031 C 
BRANCH  15  16
ATOM     16  C   UNL     1      47.873  36.306  26.114  1.00  0.00     0.027 C 
BRANCH  16  17
ATOM     17  C   UNL     1      47.827  37.777  26.543  1.00  0.00     0.004 C 
BRANCH  17  18
ATOM     18  C   UNL     1      48.242  37.938  28.008  1.00  0.00     0.000 C 
BRANCH  18  19
ATOM     19  C   UNL     1      48.367  36.607  28.752  1.00  0.00    -0.003 C 
ATOM     20  C   UNL     1      47.487  36.518  29.990  1.00  0.00     0.004 C 
ENDBRANCH  18  19
ENDBRANCH  17  18
ENDBRANCH  16  17
ENDBRANCH  15  16
ENDBRANCH  13  14
ENDBRANCH  12  13
ENDBRANCH   1  11
TORSDOF 14
ENDMDL
MODEL 14
REMARK VINA RESULT:    -5.216      1.850      3.795
REMARK INTER + INTRA:         -11.051
REMARK INTER:                  -9.211
REMARK INTRA:                  -1.840
REMARK UNBOUND:                -1.566
REMARK SMILES CCCCC/C=C\C/C=C\CCCCCCCC(=O)[O-]
REMARK SMILES IDX 11 1 12 2 13 3 14 4 15 5 16 6 17 7 18 8 19 9 20 10 10 11
REMARK SMILES IDX 9 12 8 13 7 14 6 15 5 16 4 17 3 18 2 19 1 20
REMARK H PARENT
REMARK INDEX MAP 8 1 6 2 4 3 3 4 5 5 7 6 9 7 18 8 2 9 1 10 12 11 15 12 16 13
REMARK INDEX MAP 19 14 17 15 13 16 10 17 11 18 14 19 20 20
ROOT
ATOM      1  C   UNL     1      47.800  36.668  25.776  1.00  0.00     0.027 C 
ENDROOT
BRANCH   1   2
ATOM      2  C   UNL     1      47.462  37.898  26.626  1.00  0.00     0.004 C 
BRANCH   2   3
ATOM      3  C   UNL     1      48.252  37.964  27.938  1.00  0.00     0.000 C 
BRANCH   3   4
ATOM      4  C   UNL     1      47.673  37.070  29.039  1.00  0.00     0.000 C 
BRANCH   4   5
ATOM      5  C   UNL     1      48.690  36.079  29.613  1.00  0.00     0.000 C 
BRANCH   5   6
ATOM      6  C   UNL     1      48.031  35.136  30.627  1.00  0.00     0.006 C 
BRANCH   6   7
ATOM      7  C   UNL     1      48.257  35.581  32.071  1.00  0.00     0.053 C 
BRANCH   7   8
ATOM      8  C   UNL     1      47.013  36.138  32.721  1.00  0.00     0.041 C 
ATOM      9  O   UNL     1      45.919  35.596  32.765  1.00  0.00    -0.550 OA
ATOM     10  O   UNL     1      47.283  37.339  33.293  1.00  0.00    -0.550 OA
ENDBRANCH   7   8
ENDBRANCH   6   7
ENDBRANCH   5   6
ENDBRANCH   4   5
ENDBRANCH   3   4
ENDBRANCH   2   3
ENDBRANCH   1   2
BRANCH   1  11
ATOM     11  C   UNL     1      46.658  35.699  25.660  1.00  0.00    -0.031 C 
ATOM     12  C   UNL     1      46.739  34.407  26.010  1.00  0.00    -0.027 C 
BRANCH  12  13
ATOM     13  C   UNL     1      47.979  33.769  26.562  1.00  0.00     0.054 C 
BRANCH  13  14
ATOM     14  C   UNL     1      49.013  33.558  25.493  1.00  0.00    -0.027 C 
ATOM     15  C   UNL     1      49.892  32.543  25.501  1.00  0.00    -0.031 C 
BRANCH  15  16
ATOM     16  C   UNL     1      50.023  31.457  26.535  1.00  0.00     0.027 C 
BRANCH  16  17
ATOM     17  C   UNL     1      49.307  30.133  26.240  1.00  0.00     0.004 C 
BRANCH  17  18
ATOM     18  C   UNL     1      48.262  29.820  27.315  1.00  0.00     0.000 C 
BRANCH  18  19
ATOM     19  C   UNL     1      46.880  30.398  27.003  1.00  0.00    -0.003 C 
ATOM     20  C   UNL     1      46.557  30.433  25.518  1.00  0.00     0.004 C 
ENDBRANCH  18  19
ENDBRANCH  17  18
ENDBRANCH  16  17
ENDBRANCH  15  16
ENDBRANCH  13  14
ENDBRANCH  12  13
ENDBRANCH   1  11
TORSDOF 14
ENDMDL
MODEL 15
REMARK VINA RESULT:    -5.181      2.000      3.309
REMARK INTER + INTRA:         -10.987
REMARK INTER:                  -8.806
REMARK INTRA:                  -2.181
REMARK UNBOUND:                -1.566
REMARK SMILES CCCCC/C=C\C/C=C\CCCCCCCC(=O)[O-]
REMARK SMILES IDX 11 1 12 2 13 3 14 4 15 5 16 6 17 7 18 8 19 9 20 10 10 11
REMARK SMILES IDX 9 12 8 13 7 14 6 15 5 16 4 17 3 18 2 19 1 20
REMARK H PARENT
REMARK INDEX MAP 8 1 6 2 4 3 3 4 5 5 7 6 9 7 18 8 2 9 1 10 12 11 15 12 16 13
REMARK INDEX MAP 19 14 17 15 13 16 10 17 11 18 14 19 20 20
ROOT
ATOM      1  C   UNL     1      48.444  33.584  29.022  1.00  0.00     0.027 C 
ENDROOT
BRANCH   1   2
ATOM      2  C   UNL     1      47.919  32.351  29.765  1.00  0.00     0.004 C 
BRANCH   2   3
ATOM      3  C   UNL     1      48.726  32.013  31.024  1.00  0.00     0.000 C 
BRANCH   3   4
ATOM      4  C   UNL     1      47.901  32.099  32.313  1.00  0.00     0.000 C 
BRANCH   4   5
ATOM      5  C   UNL     1      48.633  32.807  33.456  1.00  0.00     0.000 C 
BRANCH   5   6
ATOM      6  C   UNL     1      47.947  34.129  33.817  1.00  0.00     0.006 C 
BRANCH   6   7
ATOM      7  C   UNL     1      46.734  34.418  32.932  1.00  0.00     0.053 C 
BRANCH   7   8
ATOM      8  C   UNL     1      45.435  34.452  33.700  1.00  0.00     0.041 C 
ATOM      9  O   UNL     1      44.365  34.873  33.286  1.00  0.00    -0.550 OA
ATOM     10  O   UNL     1      45.606  33.912  34.933  1.00  0.00    -0.550 OA
ENDBRANCH   7   8
ENDBRANCH   6   7
ENDBRANCH   5   6
ENDBRANCH   4   5
ENDBRANCH   3   4
ENDBRANCH   2   3
ENDBRANCH   1   2
BRANCH   1  11
ATOM     11  C   UNL     1      49.192  34.536  29.912  1.00  0.00    -0.031 C 
ATOM     12  C   UNL     1      48.853  35.823  30.078  1.00  0.00    -0.027 C 
BRANCH  12  13
ATOM     13  C   UNL     1      47.684  36.471  29.397  1.00  0.00     0.054 C 
BRANCH  13  14
ATOM     14  C   UNL     1      48.122  37.594  28.500  1.00  0.00    -0.027 C 
ATOM     15  C   UNL     1      47.951  37.589  27.168  1.00  0.00    -0.031 C 
BRANCH  15  16
ATOM     16  C   UNL     1      47.316  36.509  26.333  1.00  0.00     0.027 C 
BRANCH  16  17
ATOM     17  C   UNL     1      48.244  35.406  25.809  1.00  0.00     0.004 C 
BRANCH  17  18
ATOM     18  C   UNL     1      47.488  34.085  25.637  1.00  0.00     0.000 C 
BRANCH  18  19
ATOM     19  C   UNL     1      45.967  34.253  25.636  1.00  0.00    -0.003 C 
ATOM     20  C   UNL     1      45.359  34.277  24.242  1.00  0.00     0.004 C 
ENDBRANCH  18  19
ENDBRANCH  17  18
ENDBRANCH  16  17
ENDBRANCH  15  16
ENDBRANCH  13  14
ENDBRANCH  12  13
ENDBRANCH   1  11
TORSDOF 14
ENDMDL
MODEL 16
REMARK VINA RESULT:    -5.175      3.779      5.181
REMARK INTER + INTRA:         -10.977
REMARK INTER:                  -9.370
REMARK INTRA:                  -1.607
REMARK UNBOUND:                -1.566
REMARK SMILES CCCCC/C=C\C/C=C\CCCCCCCC(=O)[O-]
REMARK SMILES IDX 11 1 12 2 13 3 14 4 15 5 16 6 17 7 18 8 19 9 20 10 10 11
REMARK SMILES IDX 9 12 8 13 7 14 6 15 5 16 4 17 3 18 2 19 1 20
REMARK H PARENT
REMARK INDEX MAP 8 1 6 2 4 3 3 4 5 5 7 6 9 7 18 8 2 9 1 10 12 11 15 12 16 13
REMARK INDEX MAP 19 14 17 15 13 16 10 17 11 18 14 19 20 20
ROOT
ATOM      1  C   UNL     1      49.357  35.669  30.711  1.00  0.00     0.027 C 
ENDROOT
BRANCH   1   2
ATOM      2  C   UNL     1      49.600  35.640  32.224  1.00  0.00     0.004 C 
BRANCH   2   3
ATOM      3  C   UNL     1      50.863  36.397  32.650  1.00  0.00     0.000 C 
BRANCH   3   4
ATOM      4  C   UNL     1      52.132  35.905  31.945  1.00  0.00     0.000 C 
BRANCH   4   5
ATOM      5  C   UNL     1      53.349  35.830  32.870  1.00  0.00     0.000 C 
BRANCH   5   6
ATOM      6  C   UNL     1      52.954  36.101  34.327  1.00  0.00     0.006 C 
BRANCH   6   7
ATOM      7  C   UNL     1      53.175  34.886  35.227  1.00  0.00     0.053 C 
BRANCH   7   8
ATOM      8  C   UNL     1      51.903  34.132  35.530  1.00  0.00     0.041 C 
ATOM      9  O   UNL     1      51.174  33.592  34.713  1.00  0.00    -0.550 OA
ATOM     10  O   UNL     1      51.683  34.107  36.869  1.00  0.00    -0.550 OA
ENDBRANCH   7   8
ENDBRANCH   6   7
ENDBRANCH   5   6
ENDBRANCH   4   5
ENDBRANCH   3   4
ENDBRANCH   2   3
ENDBRANCH   1   2
BRANCH   1  11
ATOM     11  C   UNL     1      47.931  35.972  30.348  1.00  0.00    -0.031 C 
ATOM     12  C   UNL     1      47.575  36.752  29.317  1.00  0.00    -0.027 C 
BRANCH  12  13
ATOM     13  C   UNL     1      48.556  37.416  28.397  1.00  0.00     0.054 C 
BRANCH  13  14
ATOM     14  C   UNL     1      47.864  38.100  27.252  1.00  0.00    -0.027 C 
ATOM     15  C   UNL     1      47.485  37.467  26.130  1.00  0.00    -0.031 C 
BRANCH  15  16
ATOM     16  C   UNL     1      47.668  36.010  25.797  1.00  0.00     0.027 C 
BRANCH  16  17
ATOM     17  C   UNL     1      46.415  35.236  25.371  1.00  0.00     0.004 C 
BRANCH  17  18
ATOM     18  C   UNL     1      46.479  33.780  25.842  1.00  0.00     0.000 C 
BRANCH  18  19
ATOM     19  C   UNL     1      46.544  33.638  27.364  1.00  0.00    -0.003 C 
ATOM     20  C   UNL     1      47.869  33.087  27.867  1.00  0.00     0.004 C 
ENDBRANCH  18  19
ENDBRANCH  17  18
ENDBRANCH  16  17
ENDBRANCH  15  16
ENDBRANCH  13  14
ENDBRANCH  12  13
ENDBRANCH   1  11
TORSDOF 14
ENDMDL
MODEL 17
REMARK VINA RESULT:    -5.164      2.190      4.147
REMARK INTER + INTRA:         -10.956
REMARK INTER:                  -8.701
REMARK INTRA:                  -2.256
REMARK UNBOUND:                -1.566
REMARK SMILES CCCCC/C=C\C/C=C\CCCCCCCC(=O)[O-]
REMARK SMILES IDX 11 1 12 2 13 3 14 4 15 5 16 6 17 7 18 8 19 9 20 10 10 11
REMARK SMILES IDX 9 12 8 13 7 14 6 15 5 16 4 17 3 18 2 19 1 20
REMARK H PARENT
REMARK INDEX MAP 8 1 6 2 4 3 3 4 5 5 7 6 9 7 18 8 2 9 1 10 12 11 15 12 16 13
REMARK INDEX MAP 19 14 17 15 13 16 10 17 11 18 14 19 20 20
ROOT
ATOM      1  C   UNL     1      47.684  36.157  26.022  1.00  0.00     0.027 C 
ENDROOT
BRANCH   1   2
ATOM      2  C   UNL     1      47.391  37.551  26.588  1.00  0.00     0.004 C 
BRANCH   2   3
ATOM      3  C   UNL     1      48.108  37.830  27.914  1.00  0.00     0.000 C 
BRANCH   3   4
ATOM      4  C   UNL     1      48.298  36.577  28.775  1.00  0.00     0.000 C 
BRANCH   4   5
ATOM      5  C   UNL     1      47.404  36.553  30.017  1.00  0.00     0.000 C 
BRANCH   5   6
ATOM      6  C   UNL     1      48.126  35.908  31.207  1.00  0.00     0.006 C 
BRANCH   6   7
ATOM      7  C   UNL     1      47.164  35.490  32.317  1.00  0.00     0.053 C 
BRANCH   7   8
ATOM      8  C   UNL     1      46.298  36.625  32.810  1.00  0.00     0.041 C 
ATOM      9  O   UNL     1      45.085  36.708  32.692  1.00  0.00    -0.550 OA
ATOM     10  O   UNL     1      47.059  37.551  33.445  1.00  0.00    -0.550 OA
ENDBRANCH   7   8
ENDBRANCH   6   7
ENDBRANCH   5   6
ENDBRANCH   4   5
ENDBRANCH   3   4
ENDBRANCH   2   3
ENDBRANCH   1   2
BRANCH   1  11
ATOM     11  C   UNL     1      46.552  35.604  25.203  1.00  0.00    -0.031 C 
ATOM     12  C   UNL     1      46.199  34.310  25.199  1.00  0.00    -0.027 C 
BRANCH  12  13
ATOM     13  C   UNL     1      46.889  33.255  26.013  1.00  0.00     0.054 C 
BRANCH  13  14
ATOM     14  C   UNL     1      46.206  33.044  27.334  1.00  0.00    -0.027 C 
ATOM     15  C   UNL     1      46.861  32.958  28.502  1.00  0.00    -0.031 C 
BRANCH  15  16
ATOM     16  C   UNL     1      48.347  33.048  28.724  1.00  0.00     0.027 C 
BRANCH  16  17
ATOM     17  C   UNL     1      48.890  32.441  30.024  1.00  0.00     0.004 C 
BRANCH  17  18
ATOM     18  C   UNL     1      47.761  32.187  31.028  1.00  0.00     0.000 C 
BRANCH  18  19
ATOM     19  C   UNL     1      47.598  30.711  31.397  1.00  0.00    -0.003 C 
ATOM     20  C   UNL     1      48.404  29.772  30.513  1.00  0.00     0.004 C 
ENDBRANCH  18  19
ENDBRANCH  17  18
ENDBRANCH  16  17
ENDBRANCH  15  16
ENDBRANCH  13  14
ENDBRANCH  12  13
ENDBRANCH   1  11
TORSDOF 14
ENDMDL
MODEL 18
REMARK VINA RESULT:    -5.160      2.033      3.229
REMARK INTER + INTRA:         -10.949
REMARK INTER:                  -8.306
REMARK INTRA:                  -2.643
REMARK UNBOUND:                -1.566
REMARK SMILES CCCCC/C=C\C/C=C\CCCCCCCC(=O)[O-]
REMARK SMILES IDX 11 1 12 2 13 3 14 4 15 5 16 6 17 7 18 8 19 9 20 10 10 11
REMARK SMILES IDX 9 12 8 13 7 14 6 15 5 16 4 17 3 18 2 19 1 20
REMARK H PARENT
REMARK INDEX MAP 8 1 6 2 4 3 3 4 5 5 7 6 9 7 18 8 2 9 1 10 12 11 15 12 16 13
REMARK INDEX MAP 19 14 17 15 13 16 10 17 11 18 14 19 20 20
ROOT
ATOM      1  C   UNL     1      47.676  33.957  29.776  1.00  0.00     0.027 C 
ENDROOT
BRANCH   1   2
ATOM      2  C   UNL     1      47.935  32.490  30.136  1.00  0.00     0.004 C 
BRANCH   2   3
ATOM      3  C   UNL     1      46.712  31.788  30.736  1.00  0.00     0.000 C 
BRANCH   3   4
ATOM      4  C   UNL     1      46.292  32.357  32.095  1.00  0.00     0.000 C 
BRANCH   4   5
ATOM      5  C   UNL     1      47.445  32.445  33.098  1.00  0.00     0.000 C 
BRANCH   5   6
ATOM      6  C   UNL     1      47.684  33.893  33.540  1.00  0.00     0.006 C 
BRANCH   6   7
ATOM      7  C   UNL     1      46.478  34.792  33.269  1.00  0.00     0.053 C 
BRANCH   7   8
ATOM      8  C   UNL     1      46.863  36.195  32.865  1.00  0.00     0.041 C 
ATOM      9  O   UNL     1      47.950  36.723  33.043  1.00  0.00    -0.550 OA
ATOM     10  O   UNL     1      45.825  36.800  32.232  1.00  0.00    -0.550 OA
ENDBRANCH   7   8
ENDBRANCH   6   7
ENDBRANCH   5   6
ENDBRANCH   4   5
ENDBRANCH   3   4
ENDBRANCH   2   3
ENDBRANCH   1   2
BRANCH   1  11
ATOM     11  C   UNL     1      48.885  34.831  29.955  1.00  0.00    -0.031 C 
ATOM     12  C   UNL     1      48.905  36.142  29.670  1.00  0.00    -0.027 C 
BRANCH  12  13
ATOM     13  C   UNL     1      47.723  36.897  29.139  1.00  0.00     0.054 C 
BRANCH  13  14
ATOM     14  C   UNL     1      48.133  37.901  28.099  1.00  0.00    -0.027 C 
ATOM     15  C   UNL     1      47.816  37.793  26.799  1.00  0.00    -0.031 C 
BRANCH  15  16
ATOM     16  C   UNL     1      47.024  36.696  26.140  1.00  0.00     0.027 C 
BRANCH  16  17
ATOM     17  C   UNL     1      47.773  35.394  25.831  1.00  0.00     0.004 C 
BRANCH  17  18
ATOM     18  C   UNL     1      46.833  34.186  25.908  1.00  0.00     0.000 C 
BRANCH  18  19
ATOM     19  C   UNL     1      47.554  32.878  26.240  1.00  0.00    -0.003 C 
ATOM     20  C   UNL     1      49.059  33.036  26.395  1.00  0.00     0.004 C 
ENDBRANCH  18  19
ENDBRANCH  17  18
ENDBRANCH  16  17
ENDBRANCH  15  16
ENDBRANCH  13  14
ENDBRANCH  12  13
ENDBRANCH   1  11
TORSDOF 14
ENDMDL
MODEL 19
REMARK VINA RESULT:    -5.147      3.051      5.017
REMARK INTER + INTRA:         -10.926
REMARK INTER:                  -9.829
REMARK INTRA:                  -1.097
REMARK UNBOUND:                -1.566
REMARK SMILES CCCCC/C=C\C/C=C\CCCCCCCC(=O)[O-]
REMARK SMILES IDX 11 1 12 2 13 3 14 4 15 5 16 6 17 7 18 8 19 9 20 10 10 11
REMARK SMILES IDX 9 12 8 13 7 14 6 15 5 16 4 17 3 18 2 19 1 20
REMARK H PARENT
REMARK INDEX MAP 8 1 6 2 4 3 3 4 5 5 7 6 9 7 18 8 2 9 1 10 12 11 15 12 16 13
REMARK INDEX MAP 19 14 17 15 13 16 10 17 11 18 14 19 20 20
ROOT
ATOM      1  C   UNL     1      46.355  31.042  28.425  1.00  0.00     0.027 C 
ENDROOT
BRANCH   1   2
ATOM      2  C   UNL     1      44.985  30.365  28.557  1.00  0.00     0.004 C 
BRANCH   2   3
ATOM      3  C   UNL     1      44.300  30.639  29.900  1.00  0.00     0.000 C 
BRANCH   3   4
ATOM      4  C   UNL     1      45.268  31.117  30.988  1.00  0.00     0.000 C 
BRANCH   4   5
ATOM      5  C   UNL     1      45.024  30.459  32.348  1.00  0.00     0.000 C 
BRANCH   5   6
ATOM      6  C   UNL     1      45.864  31.127  33.444  1.00  0.00     0.006 C 
BRANCH   6   7
ATOM      7  C   UNL     1      45.035  32.057  34.329  1.00  0.00     0.053 C 
BRANCH   7   8
ATOM      8  C   UNL     1      45.379  33.515  34.142  1.00  0.00     0.041 C 
ATOM      9  O   UNL     1      44.814  34.298  33.394  1.00  0.00    -0.550 OA
ATOM     10  O   UNL     1      46.407  33.860  34.959  1.00  0.00    -0.550 OA
ENDBRANCH   7   8
ENDBRANCH   6   7
ENDBRANCH   5   6
ENDBRANCH   4   5
ENDBRANCH   3   4
ENDBRANCH   2   3
ENDBRANCH   1   2
BRANCH   1  11
ATOM     11  C   UNL     1      46.887  31.027  27.021  1.00  0.00    -0.031 C 
ATOM     12  C   UNL     1      46.809  32.073  26.184  1.00  0.00    -0.027 C 
BRANCH  12  13
ATOM     13  C   UNL     1      46.183  33.387  26.549  1.00  0.00     0.054 C 
BRANCH  13  14
ATOM     14  C   UNL     1      45.898  34.219  25.330  1.00  0.00    -0.027 C 
ATOM     15  C   UNL     1      46.539  35.365  25.050  1.00  0.00    -0.031 C 
BRANCH  15  16
ATOM     16  C   UNL     1      47.622  36.027  25.857  1.00  0.00     0.027 C 
BRANCH  16  17
ATOM     17  C   UNL     1      47.327  37.437  26.385  1.00  0.00     0.004 C 
BRANCH  17  18
ATOM     18  C   UNL     1      48.122  37.725  27.662  1.00  0.00     0.000 C 
BRANCH  18  19
ATOM     19  C   UNL     1      47.521  37.074  28.909  1.00  0.00    -0.003 C 
ATOM     20  C   UNL     1      48.508  36.212  29.680  1.00  0.00     0.004 C 
ENDBRANCH  18  19
ENDBRANCH  17  18
ENDBRANCH  16  17
ENDBRANCH  15  16
ENDBRANCH  13  14
ENDBRANCH  12  13
ENDBRANCH   1  11
TORSDOF 14
ENDMDL
MODEL 20
REMARK VINA RESULT:    -5.083      2.348      4.625
REMARK INTER + INTRA:         -10.809
REMARK INTER:                  -8.649
REMARK INTRA:                  -2.161
REMARK UNBOUND:                -1.566
REMARK SMILES CCCCC/C=C\C/C=C\CCCCCCCC(=O)[O-]
REMARK SMILES IDX 11 1 12 2 13 3 14 4 15 5 16 6 17 7 18 8 19 9 20 10 10 11
REMARK SMILES IDX 9 12 8 13 7 14 6 15 5 16 4 17 3 18 2 19 1 20
REMARK H PARENT
REMARK INDEX MAP 8 1 6 2 4 3 3 4 5 5 7 6 9 7 18 8 2 9 1 10 12 11 15 12 16 13
REMARK INDEX MAP 19 14 17 15 13 16 10 17 11 18 14 19 20 20
ROOT
ATOM      1  C   UNL     1      46.048  33.490  27.375  1.00  0.00     0.027 C 
ENDROOT
BRANCH   1   2
ATOM      2  C   UNL     1      46.737  32.218  27.883  1.00  0.00     0.004 C 
BRANCH   2   3
ATOM      3  C   UNL     1      46.345  31.848  29.317  1.00  0.00     0.000 C 
BRANCH   3   4
ATOM      4  C   UNL     1      47.548  31.698  30.255  1.00  0.00     0.000 C 
BRANCH   4   5
ATOM      5  C   UNL     1      47.180  31.814  31.737  1.00  0.00     0.000 C 
BRANCH   5   6
ATOM      6  C   UNL     1      45.660  31.886  31.925  1.00  0.00     0.006 C 
BRANCH   6   7
ATOM      7  C   UNL     1      45.260  32.019  33.394  1.00  0.00     0.053 C 
BRANCH   7   8
ATOM      8  C   UNL     1      45.364  33.433  33.911  1.00  0.00     0.041 C 
ATOM      9  O   UNL     1      45.930  33.786  34.935  1.00  0.00    -0.550 OA
ATOM     10  O   UNL     1      44.756  34.291  33.052  1.00  0.00    -0.550 OA
ENDBRANCH   7   8
ENDBRANCH   6   7
ENDBRANCH   5   6
ENDBRANCH   4   5
ENDBRANCH   3   4
ENDBRANCH   2   3
ENDBRANCH   1   2
BRANCH   1  11
ATOM     11  C   UNL     1      46.172  33.674  25.889  1.00  0.00    -0.031 C 
ATOM     12  C   UNL     1      47.116  34.429  25.308  1.00  0.00    -0.027 C 
BRANCH  12  13
ATOM     13  C   UNL     1      48.166  35.183  26.070  1.00  0.00     0.054 C 
BRANCH  13  14
ATOM     14  C   UNL     1      48.021  36.667  25.887  1.00  0.00    -0.027 C 
ATOM     15  C   UNL     1      47.606  37.496  26.858  1.00  0.00    -0.031 C 
BRANCH  15  16
ATOM     16  C   UNL     1      47.215  37.132  28.265  1.00  0.00     0.027 C 
BRANCH  16  17
ATOM     17  C   UNL     1      48.342  36.674  29.199  1.00  0.00     0.004 C 
BRANCH  17  18
ATOM     18  C   UNL     1      47.980  35.359  29.896  1.00  0.00     0.000 C 
BRANCH  18  19
ATOM     19  C   UNL     1      47.688  35.524  31.389  1.00  0.00    -0.003 C 
ATOM     20  C   UNL     1      48.886  35.232  32.278  1.00  0.00     0.004 C 
ENDBRANCH  18  19
ENDBRANCH  17  18
ENDBRANCH  16  17
ENDBRANCH  15  16
ENDBRANCH  13  14
ENDBRANCH  12  13
ENDBRANCH   1  11
TORSDOF 14
ENDMDL
