MODEL 1
REMARK VINA RESULT:    -5.702      0.000      0.000
REMARK INTER + INTRA:         -12.253
REMARK INTER:                 -10.369
REMARK INTRA:                  -1.884
REMARK UNBOUND:                -1.884
REMARK SMILES CCCCC/C=C\C/C=C\CCCCCCCC(=O)[O-]
REMARK SMILES IDX 11 1 12 2 13 3 14 4 15 5 16 6 17 7 18 8 19 9 20 10 10 11
REMARK SMILES IDX 9 12 8 13 7 14 6 15 5 16 4 17 3 18 2 19 1 20
REMARK H PARENT
REMARK INDEX MAP 8 1 6 2 4 3 3 4 5 5 7 6 9 7 18 8 2 9 1 10 12 11 15 12 16 13
REMARK INDEX MAP 19 14 17 15 13 16 10 17 11 18 14 19 20 20
ROOT
ATOM      1  C   UNL     1      48.405  37.029  28.442  1.00  0.00     0.027 C 
ENDROOT
BRANCH   1   2
ATOM      2  C   UNL     1      47.680  36.661  29.742  1.00  0.00     0.004 C 
BRANCH   2   3
ATOM      3  C   UNL     1      47.760  35.169  30.080  1.00  0.00     0.000 C 
BRANCH   3   4
ATOM      4  C   UNL     1      48.268  34.894  31.499  1.00  0.00     0.000 C 
BRANCH   4   5
ATOM      5  C   UNL     1      47.837  35.956  32.514  1.00  0.00     0.000 C 
BRANCH   5   6
ATOM      6  C   UNL     1      46.422  35.679  33.037  1.00  0.00     0.006 C 
BRANCH   6   7
ATOM      7  C   UNL     1      45.472  36.853  32.800  1.00  0.00     0.053 C 
BRANCH   7   8
ATOM      8  C   UNL     1      44.110  36.648  33.418  1.00  0.00     0.041 C 
ATOM      9  O   UNL     1      43.202  35.977  32.952  1.00  0.00    -0.550 OA
ATOM     10  O   UNL     1      44.034  37.300  34.606  1.00  0.00    -0.550 OA
ENDBRANCH   7   8
ENDBRANCH   6   7
ENDBRANCH   5   6
ENDBRANCH   4   5
ENDBRANCH   3   4
ENDBRANCH   2   3
ENDBRANCH   1   2
BRANCH   1  11
ATOM     11  C   UNL     1      47.543  37.805  27.487  1.00  0.00    -0.031 C 
ATOM     12  C   UNL     1      47.229  37.380  26.254  1.00  0.00    -0.027 C 
BRANCH  12  13
ATOM     13  C   UNL     1      47.698  36.077  25.677  1.00  0.00     0.054 C 
BRANCH  13  14
ATOM     14  C   UNL     1      46.552  35.269  25.138  1.00  0.00    -0.027 C 
ATOM     15  C   UNL     1      46.083  34.160  25.733  1.00  0.00    -0.031 C 
BRANCH  15  16
ATOM     16  C   UNL     1      46.582  33.523  27.002  1.00  0.00     0.027 C 
BRANCH  16  17
ATOM     17  C   UNL     1      47.789  32.586  26.876  1.00  0.00     0.004 C 
BRANCH  17  18
ATOM     18  C   UNL     1      47.832  31.923  25.495  1.00  0.00     0.000 C 
BRANCH  18  19
ATOM     19  C   UNL     1      49.140  32.177  24.742  1.00  0.00    -0.003 C 
ATOM     20  C   UNL     1      50.065  33.158  25.444  1.00  0.00     0.004 C 
ENDBRANCH  18  19
ENDBRANCH  17  18
ENDBRANCH  16  17
ENDBRANCH  15  16
ENDBRANCH  13  14
ENDBRANCH  12  13
ENDBRANCH   1  11
TORSDOF 14
ENDMDL
MODEL 2
REMARK VINA RESULT:    -5.525      1.949      3.718
REMARK INTER + INTRA:         -11.931
REMARK INTER:                 -10.081
REMARK INTRA:                  -1.851
REMARK UNBOUND:                -1.884
REMARK SMILES CCCCC/C=C\C/C=C\CCCCCCCC(=O)[O-]
REMARK SMILES IDX 11 1 12 2 13 3 14 4 15 5 16 6 17 7 18 8 19 9 20 10 10 11
REMARK SMILES IDX 9 12 8 13 7 14 6 15 5 16 4 17 3 18 2 19 1 20
REMARK H PARENT
REMARK INDEX MAP 8 1 6 2 4 3 3 4 5 5 7 6 9 7 18 8 2 9 1 10 12 11 15 12 16 13
REMARK INDEX MAP 19 14 17 15 13 16 10 17 11 18 14 19 20 20
ROOT
ATOM      1  C   UNL     1      47.402  35.888  25.459  1.00  0.00     0.027 C 
ENDROOT
BRANCH   1   2
ATOM      2  C   UNL     1      46.914  37.100  26.261  1.00  0.00     0.004 C 
BRANCH   2   3
ATOM      3  C   UNL     1      48.046  38.039  26.690  1.00  0.00     0.000 C 
BRANCH   3   4
ATOM      4  C   UNL     1      48.410  37.912  28.173  1.00  0.00     0.000 C 
BRANCH   4   5
ATOM      5  C   UNL     1      47.457  37.005  28.956  1.00  0.00     0.000 C 
BRANCH   5   6
ATOM      6  C   UNL     1      48.135  35.681  29.329  1.00  0.00     0.006 C 
BRANCH   6   7
ATOM      7  C   UNL     1      48.875  35.761  30.664  1.00  0.00     0.053 C 
BRANCH   7   8
ATOM      8  C   UNL     1      47.953  35.696  31.858  1.00  0.00     0.041 C 
ATOM      9  O   UNL     1      46.903  35.075  31.924  1.00  0.00    -0.550 OA
ATOM     10  O   UNL     1      48.470  36.415  32.887  1.00  0.00    -0.550 OA
ENDBRANCH   7   8
ENDBRANCH   6   7
ENDBRANCH   5   6
ENDBRANCH   4   5
ENDBRANCH   3   4
ENDBRANCH   2   3
ENDBRANCH   1   2
BRANCH   1  11
ATOM     11  C   UNL     1      46.279  35.054  24.910  1.00  0.00    -0.031 C 
ATOM     12  C   UNL     1      45.790  33.966  25.525  1.00  0.00    -0.027 C 
BRANCH  12  13
ATOM     13  C   UNL     1      46.302  33.450  26.837  1.00  0.00     0.054 C 
BRANCH  13  14
ATOM     14  C   UNL     1      46.909  32.083  26.692  1.00  0.00    -0.027 C 
ATOM     15  C   UNL     1      48.226  31.869  26.548  1.00  0.00    -0.031 C 
BRANCH  15  16
ATOM     16  C   UNL     1      49.320  32.901  26.500  1.00  0.00     0.027 C 
BRANCH  16  17
ATOM     17  C   UNL     1      50.164  32.955  25.220  1.00  0.00     0.004 C 
BRANCH  17  18
ATOM     18  C   UNL     1      50.709  31.570  24.860  1.00  0.00     0.000 C 
BRANCH  18  19
ATOM     19  C   UNL     1      52.233  31.534  24.727  1.00  0.00    -0.003 C 
ATOM     20  C   UNL     1      52.936  32.641  25.497  1.00  0.00     0.004 C 
ENDBRANCH  18  19
ENDBRANCH  17  18
ENDBRANCH  16  17
ENDBRANCH  15  16
ENDBRANCH  13  14
ENDBRANCH  12  13
ENDBRANCH   1  11
TORSDOF 14
ENDMDL
MODEL 3
REMARK VINA RESULT:    -5.434      1.410      3.181
REMARK INTER + INTRA:         -11.766
REMARK INTER:                  -9.657
REMARK INTRA:                  -2.110
REMARK UNBOUND:                -1.884
REMARK SMILES CCCCC/C=C\C/C=C\CCCCCCCC(=O)[O-]
REMARK SMILES IDX 11 1 12 2 13 3 14 4 15 5 16 6 17 7 18 8 19 9 20 10 10 11
REMARK SMILES IDX 9 12 8 13 7 14 6 15 5 16 4 17 3 18 2 19 1 20
REMARK H PARENT
REMARK INDEX MAP 8 1 6 2 4 3 3 4 5 5 7 6 9 7 18 8 2 9 1 10 12 11 15 12 16 13
REMARK INDEX MAP 19 14 17 15 13 16 10 17 11 18 14 19 20 20
ROOT
ATOM      1  C   UNL     1      47.790  36.122  25.689  1.00  0.00     0.027 C 
ENDROOT
BRANCH   1   2
ATOM      2  C   UNL     1      47.285  37.427  26.314  1.00  0.00     0.004 C 
BRANCH   2   3
ATOM      3  C   UNL     1      48.056  37.834  27.574  1.00  0.00     0.000 C 
BRANCH   3   4
ATOM      4  C   UNL     1      47.559  37.131  28.842  1.00  0.00     0.000 C 
BRANCH   4   5
ATOM      5  C   UNL     1      48.623  36.255  29.507  1.00  0.00     0.000 C 
BRANCH   5   6
ATOM      6  C   UNL     1      47.988  35.268  30.495  1.00  0.00     0.006 C 
BRANCH   6   7
ATOM      7  C   UNL     1      48.244  35.654  31.951  1.00  0.00     0.053 C 
BRANCH   7   8
ATOM      8  C   UNL     1      46.997  36.100  32.675  1.00  0.00     0.041 C 
ATOM      9  O   UNL     1      45.924  35.517  32.686  1.00  0.00    -0.550 OA
ATOM     10  O   UNL     1      47.237  37.250  33.354  1.00  0.00    -0.550 OA
ENDBRANCH   7   8
ENDBRANCH   6   7
ENDBRANCH   5   6
ENDBRANCH   4   5
ENDBRANCH   3   4
ENDBRANCH   2   3
ENDBRANCH   1   2
BRANCH   1  11
ATOM     11  C   UNL     1      46.682  35.246  25.178  1.00  0.00    -0.031 C 
ATOM     12  C   UNL     1      46.138  34.244  25.885  1.00  0.00    -0.027 C 
BRANCH  12  13
ATOM     13  C   UNL     1      46.569  33.876  27.275  1.00  0.00     0.054 C 
BRANCH  13  14
ATOM     14  C   UNL     1      47.037  32.450  27.347  1.00  0.00    -0.027 C 
ATOM     15  C   UNL     1      48.300  32.072  27.093  1.00  0.00    -0.031 C 
BRANCH  15  16
ATOM     16  C   UNL     1      49.456  32.951  26.700  1.00  0.00     0.027 C 
BRANCH  16  17
ATOM     17  C   UNL     1      49.856  32.945  25.219  1.00  0.00     0.004 C 
BRANCH  17  18
ATOM     18  C   UNL     1      50.551  31.634  24.841  1.00  0.00     0.000 C 
BRANCH  18  19
ATOM     19  C   UNL     1      49.784  30.820  23.797  1.00  0.00    -0.003 C 
ATOM     20  C   UNL     1      48.905  29.735  24.399  1.00  0.00     0.004 C 
ENDBRANCH  18  19
ENDBRANCH  17  18
ENDBRANCH  16  17
ENDBRANCH  15  16
ENDBRANCH  13  14
ENDBRANCH  12  13
ENDBRANCH   1  11
TORSDOF 14
ENDMDL
MODEL 4
REMARK VINA RESULT:    -5.362      2.030      3.246
REMARK INTER + INTRA:         -11.635
REMARK INTER:                  -9.759
REMARK INTRA:                  -1.875
REMARK UNBOUND:                -1.884
REMARK SMILES CCCCC/C=C\C/C=C\CCCCCCCC(=O)[O-]
REMARK SMILES IDX 11 1 12 2 13 3 14 4 15 5 16 6 17 7 18 8 19 9 20 10 10 11
REMARK SMILES IDX 9 12 8 13 7 14 6 15 5 16 4 17 3 18 2 19 1 20
REMARK H PARENT
REMARK INDEX MAP 8 1 6 2 4 3 3 4 5 5 7 6 9 7 18 8 2 9 1 10 12 11 15 12 16 13
REMARK INDEX MAP 19 14 17 15 13 16 10 17 11 18 14 19 20 20
ROOT
ATOM      1  C   UNL     1      49.257  35.656  30.210  1.00  0.00     0.027 C 
ENDROOT
BRANCH   1   2
ATOM      2  C   UNL     1      49.390  34.250  30.807  1.00  0.00     0.004 C 
BRANCH   2   3
ATOM      3  C   UNL     1      48.383  33.970  31.928  1.00  0.00     0.000 C 
BRANCH   3   4
ATOM      4  C   UNL     1      48.809  34.545  33.283  1.00  0.00     0.000 C 
BRANCH   4   5
ATOM      5  C   UNL     1      48.450  33.640  34.465  1.00  0.00     0.000 C 
BRANCH   5   6
ATOM      6  C   UNL     1      47.590  32.454  34.013  1.00  0.00     0.006 C 
BRANCH   6   7
ATOM      7  C   UNL     1      46.212  32.448  34.671  1.00  0.00     0.053 C 
BRANCH   7   8
ATOM      8  C   UNL     1      45.309  33.548  34.167  1.00  0.00     0.041 C 
ATOM      9  O   UNL     1      44.921  34.512  34.809  1.00  0.00    -0.550 OA
ATOM     10  O   UNL     1      44.998  33.336  32.863  1.00  0.00    -0.550 OA
ENDBRANCH   7   8
ENDBRANCH   6   7
ENDBRANCH   5   6
ENDBRANCH   4   5
ENDBRANCH   3   4
ENDBRANCH   2   3
ENDBRANCH   1   2
BRANCH   1  11
ATOM     11  C   UNL     1      47.833  36.126  30.119  1.00  0.00    -0.031 C 
ATOM     12  C   UNL     1      47.391  36.989  29.191  1.00  0.00    -0.027 C 
BRANCH  12  13
ATOM     13  C   UNL     1      48.265  37.590  28.130  1.00  0.00     0.054 C 
BRANCH  13  14
ATOM     14  C   UNL     1      47.536  37.716  26.823  1.00  0.00    -0.027 C 
ATOM     15  C   UNL     1      47.577  36.784  25.858  1.00  0.00    -0.031 C 
BRANCH  15  16
ATOM     16  C   UNL     1      48.327  35.480  25.879  1.00  0.00     0.027 C 
BRANCH  16  17
ATOM     17  C   UNL     1      47.558  34.232  25.427  1.00  0.00     0.004 C 
BRANCH  17  18
ATOM     18  C   UNL     1      46.223  34.109  26.167  1.00  0.00     0.000 C 
BRANCH  18  19
ATOM     19  C   UNL     1      46.141  32.873  27.066  1.00  0.00    -0.003 C 
ATOM     20  C   UNL     1      46.881  33.032  28.385  1.00  0.00     0.004 C 
ENDBRANCH  18  19
ENDBRANCH  17  18
ENDBRANCH  16  17
ENDBRANCH  15  16
ENDBRANCH  13  14
ENDBRANCH  12  13
ENDBRANCH   1  11
TORSDOF 14
ENDMDL
MODEL 5
REMARK VINA RESULT:    -5.355      1.570      3.257
REMARK INTER + INTRA:         -11.623
REMARK INTER:                 -10.138
REMARK INTRA:                  -1.485
REMARK UNBOUND:                -1.884
REMARK SMILES CCCCC/C=C\C/C=C\CCCCCCCC(=O)[O-]
REMARK SMILES IDX 11 1 12 2 13 3 14 4 15 5 16 6 17 7 18 8 19 9 20 10 10 11
REMARK SMILES IDX 9 12 8 13 7 14 6 15 5 16 4 17 3 18 2 19 1 20
REMARK H PARENT
REMARK INDEX MAP 8 1 6 2 4 3 3 4 5 5 7 6 9 7 18 8 2 9 1 10 12 11 15 12 16 13
REMARK INDEX MAP 19 14 17 15 13 16 10 17 11 18 14 19 20 20
ROOT
ATOM      1  C   UNL     1      47.774  35.317  31.293  1.00  0.00     0.027 C 
ENDROOT
BRANCH   1   2
ATOM      2  C   UNL     1      47.703  33.934  31.951  1.00  0.00     0.004 C 
BRANCH   2   3
ATOM      3  C   UNL     1      47.875  33.978  33.473  1.00  0.00     0.000 C 
BRANCH   3   4
ATOM      4  C   UNL     1      46.892  33.071  34.221  1.00  0.00     0.000 C 
BRANCH   4   5
ATOM      5  C   UNL     1      45.441  33.243  33.764  1.00  0.00     0.000 C 
BRANCH   5   6
ATOM      6  C   UNL     1      44.780  34.439  34.460  1.00  0.00     0.006 C 
BRANCH   6   7
ATOM      7  C   UNL     1      44.472  35.580  33.492  1.00  0.00     0.053 C 
BRANCH   7   8
ATOM      8  C   UNL     1      43.383  36.500  33.987  1.00  0.00     0.041 C 
ATOM      9  O   UNL     1      42.185  36.370  33.790  1.00  0.00    -0.550 OA
ATOM     10  O   UNL     1      43.920  37.504  34.726  1.00  0.00    -0.550 OA
ENDBRANCH   7   8
ENDBRANCH   6   7
ENDBRANCH   5   6
ENDBRANCH   4   5
ENDBRANCH   3   4
ENDBRANCH   2   3
ENDBRANCH   1   2
BRANCH   1  11
ATOM     11  C   UNL     1      48.950  35.471  30.370  1.00  0.00    -0.031 C 
ATOM     12  C   UNL     1      48.983  36.335  29.344  1.00  0.00    -0.027 C 
BRANCH  12  13
ATOM     13  C   UNL     1      47.852  37.256  28.994  1.00  0.00     0.054 C 
BRANCH  13  14
ATOM     14  C   UNL     1      48.213  38.162  27.851  1.00  0.00    -0.027 C 
ATOM     15  C   UNL     1      47.843  37.934  26.580  1.00  0.00    -0.031 C 
BRANCH  15  16
ATOM     16  C   UNL     1      47.032  36.780  26.058  1.00  0.00     0.027 C 
BRANCH  16  17
ATOM     17  C   UNL     1      47.751  35.431  25.928  1.00  0.00     0.004 C 
BRANCH  17  18
ATOM     18  C   UNL     1      46.836  34.376  25.301  1.00  0.00     0.000 C 
BRANCH  18  19
ATOM     19  C   UNL     1      46.091  33.528  26.334  1.00  0.00    -0.003 C 
ATOM     20  C   UNL     1      46.765  33.501  27.697  1.00  0.00     0.004 C 
ENDBRANCH  18  19
ENDBRANCH  17  18
ENDBRANCH  16  17
ENDBRANCH  15  16
ENDBRANCH  13  14
ENDBRANCH  12  13
ENDBRANCH   1  11
TORSDOF 14
ENDMDL
MODEL 6
REMARK VINA RESULT:    -5.351      1.160      1.739
REMARK INTER + INTRA:         -11.615
REMARK INTER:                  -9.681
REMARK INTRA:                  -1.934
REMARK UNBOUND:                -1.884
REMARK SMILES CCCCC/C=C\C/C=C\CCCCCCCC(=O)[O-]
REMARK SMILES IDX 11 1 12 2 13 3 14 4 15 5 16 6 17 7 18 8 19 9 20 10 10 11
REMARK SMILES IDX 9 12 8 13 7 14 6 15 5 16 4 17 3 18 2 19 1 20
REMARK H PARENT
REMARK INDEX MAP 8 1 6 2 4 3 3 4 5 5 7 6 9 7 18 8 2 9 1 10 12 11 15 12 16 13
REMARK INDEX MAP 19 14 17 15 13 16 10 17 11 18 14 19 20 20
ROOT
ATOM      1  C   UNL     1      48.304  37.445  27.828  1.00  0.00     0.027 C 
ENDROOT
BRANCH   1   2
ATOM      2  C   UNL     1      47.537  37.018  29.084  1.00  0.00     0.004 C 
BRANCH   2   3
ATOM      3  C   UNL     1      48.383  36.194  30.061  1.00  0.00     0.000 C 
BRANCH   3   4
ATOM      4  C   UNL     1      47.951  34.726  30.150  1.00  0.00     0.000 C 
BRANCH   4   5
ATOM      5  C   UNL     1      48.285  34.076  31.494  1.00  0.00     0.000 C 
BRANCH   5   6
ATOM      6  C   UNL     1      48.051  35.051  32.654  1.00  0.00     0.006 C 
BRANCH   6   7
ATOM      7  C   UNL     1      46.574  35.169  33.027  1.00  0.00     0.053 C 
BRANCH   7   8
ATOM      8  C   UNL     1      46.056  36.586  32.958  1.00  0.00     0.041 C 
ATOM      9  O   UNL     1      44.934  36.926  32.617  1.00  0.00    -0.550 OA
ATOM     10  O   UNL     1      47.017  37.455  33.364  1.00  0.00    -0.550 OA
ENDBRANCH   7   8
ENDBRANCH   6   7
ENDBRANCH   5   6
ENDBRANCH   4   5
ENDBRANCH   3   4
ENDBRANCH   2   3
ENDBRANCH   1   2
BRANCH   1  11
ATOM     11  C   UNL     1      47.416  37.639  26.632  1.00  0.00    -0.031 C 
ATOM     12  C   UNL     1      47.113  36.663  25.763  1.00  0.00    -0.027 C 
BRANCH  12  13
ATOM     13  C   UNL     1      47.621  35.256  25.880  1.00  0.00     0.054 C 
BRANCH  13  14
ATOM     14  C   UNL     1      46.616  34.360  26.545  1.00  0.00    -0.027 C 
ATOM     15  C   UNL     1      46.903  33.126  26.988  1.00  0.00    -0.031 C 
BRANCH  15  16
ATOM     16  C   UNL     1      48.226  32.413  26.913  1.00  0.00     0.027 C 
BRANCH  16  17
ATOM     17  C   UNL     1      48.435  31.466  25.725  1.00  0.00     0.004 C 
BRANCH  17  18
ATOM     18  C   UNL     1      49.460  32.036  24.739  1.00  0.00     0.000 C 
BRANCH  18  19
ATOM     19  C   UNL     1      50.489  32.955  25.399  1.00  0.00    -0.003 C 
ATOM     20  C   UNL     1      51.919  32.451  25.279  1.00  0.00     0.004 C 
ENDBRANCH  18  19
ENDBRANCH  17  18
ENDBRANCH  16  17
ENDBRANCH  15  16
ENDBRANCH  13  14
ENDBRANCH  12  13
ENDBRANCH   1  11
TORSDOF 14
ENDMDL
MODEL 7
REMARK VINA RESULT:    -5.343      1.392      1.761
REMARK INTER + INTRA:         -11.601
REMARK INTER:                 -10.007
REMARK INTRA:                  -1.595
REMARK UNBOUND:                -1.884
REMARK SMILES CCCCC/C=C\C/C=C\CCCCCCCC(=O)[O-]
REMARK SMILES IDX 11 1 12 2 13 3 14 4 15 5 16 6 17 7 18 8 19 9 20 10 10 11
REMARK SMILES IDX 9 12 8 13 7 14 6 15 5 16 4 17 3 18 2 19 1 20
REMARK H PARENT
REMARK INDEX MAP 8 1 6 2 4 3 3 4 5 5 7 6 9 7 18 8 2 9 1 10 12 11 15 12 16 13
REMARK INDEX MAP 19 14 17 15 13 16 10 17 11 18 14 19 20 20
ROOT
ATOM      1  C   UNL     1      47.292  37.144  28.333  1.00  0.00     0.027 C 
ENDROOT
BRANCH   1   2
ATOM      2  C   UNL     1      48.398  36.406  29.096  1.00  0.00     0.004 C 
BRANCH   2   3
ATOM      3  C   UNL     1      48.031  34.961  29.450  1.00  0.00     0.000 C 
BRANCH   3   4
ATOM      4  C   UNL     1      47.987  34.699  30.959  1.00  0.00     0.000 C 
BRANCH   4   5
ATOM      5  C   UNL     1      47.718  35.959  31.786  1.00  0.00     0.000 C 
BRANCH   5   6
ATOM      6  C   UNL     1      46.884  35.636  33.031  1.00  0.00     0.006 C 
BRANCH   6   7
ATOM      7  C   UNL     1      46.722  34.133  33.251  1.00  0.00     0.053 C 
BRANCH   7   8
ATOM      8  C   UNL     1      45.414  33.766  33.910  1.00  0.00     0.041 C 
ATOM      9  O   UNL     1      44.822  34.426  34.750  1.00  0.00    -0.550 OA
ATOM     10  O   UNL     1      44.953  32.591  33.411  1.00  0.00    -0.550 OA
ENDBRANCH   7   8
ENDBRANCH   6   7
ENDBRANCH   5   6
ENDBRANCH   4   5
ENDBRANCH   3   4
ENDBRANCH   2   3
ENDBRANCH   1   2
BRANCH   1  11
ATOM     11  C   UNL     1      47.787  37.826  27.089  1.00  0.00    -0.031 C 
ATOM     12  C   UNL     1      48.061  37.181  25.945  1.00  0.00    -0.027 C 
BRANCH  12  13
ATOM     13  C   UNL     1      47.906  35.700  25.766  1.00  0.00     0.054 C 
BRANCH  13  14
ATOM     14  C   UNL     1      46.581  35.356  25.145  1.00  0.00    -0.027 C 
ATOM     15  C   UNL     1      45.910  34.224  25.411  1.00  0.00    -0.031 C 
BRANCH  15  16
ATOM     16  C   UNL     1      46.323  33.114  26.339  1.00  0.00     0.027 C 
BRANCH  16  17
ATOM     17  C   UNL     1      46.847  31.828  25.687  1.00  0.00     0.004 C 
BRANCH  17  18
ATOM     18  C   UNL     1      48.361  31.691  25.874  1.00  0.00     0.000 C 
BRANCH  18  19
ATOM     19  C   UNL     1      49.172  32.419  24.799  1.00  0.00    -0.003 C 
ATOM     20  C   UNL     1      50.581  32.779  25.243  1.00  0.00     0.004 C 
ENDBRANCH  18  19
ENDBRANCH  17  18
ENDBRANCH  16  17
ENDBRANCH  15  16
ENDBRANCH  13  14
ENDBRANCH  12  13
ENDBRANCH   1  11
TORSDOF 14
ENDMDL
MODEL 8
REMARK VINA RESULT:    -5.259      0.852      2.071
REMARK INTER + INTRA:         -11.447
REMARK INTER:                  -9.682
REMARK INTRA:                  -1.765
REMARK UNBOUND:                -1.884
REMARK SMILES CCCCC/C=C\C/C=C\CCCCCCCC(=O)[O-]
REMARK SMILES IDX 11 1 12 2 13 3 14 4 15 5 16 6 17 7 18 8 19 9 20 10 10 11
REMARK SMILES IDX 9 12 8 13 7 14 6 15 5 16 4 17 3 18 2 19 1 20
REMARK H PARENT
REMARK INDEX MAP 8 1 6 2 4 3 3 4 5 5 7 6 9 7 18 8 2 9 1 10 12 11 15 12 16 13
REMARK INDEX MAP 19 14 17 15 13 16 10 17 11 18 14 19 20 20
ROOT
ATOM      1  C   UNL     1      48.393  35.065  29.097  1.00  0.00     0.027 C 
ENDROOT
BRANCH   1   2
ATOM      2  C   UNL     1      48.575  33.984  30.168  1.00  0.00     0.004 C 
BRANCH   2   3
ATOM      3  C   UNL     1      49.439  34.440  31.349  1.00  0.00     0.000 C 
BRANCH   3   4
ATOM      4  C   UNL     1      48.711  34.366  32.696  1.00  0.00     0.000 C 
BRANCH   4   5
ATOM      5  C   UNL     1      47.968  35.655  33.056  1.00  0.00     0.000 C 
BRANCH   5   6
ATOM      6  C   UNL     1      46.450  35.469  32.943  1.00  0.00     0.006 C 
BRANCH   6   7
ATOM      7  C   UNL     1      45.700  36.799  32.903  1.00  0.00     0.053 C 
BRANCH   7   8
ATOM      8  C   UNL     1      44.364  36.749  33.603  1.00  0.00     0.041 C 
ATOM      9  O   UNL     1      44.004  37.471  34.520  1.00  0.00    -0.550 OA
ATOM     10  O   UNL     1      43.581  35.790  33.047  1.00  0.00    -0.550 OA
ENDBRANCH   7   8
ENDBRANCH   6   7
ENDBRANCH   5   6
ENDBRANCH   4   5
ENDBRANCH   3   4
ENDBRANCH   2   3
ENDBRANCH   1   2
BRANCH   1  11
ATOM     11  C   UNL     1      47.639  36.266  29.594  1.00  0.00    -0.031 C 
ATOM     12  C   UNL     1      47.614  37.446  28.956  1.00  0.00    -0.027 C 
BRANCH  12  13
ATOM     13  C   UNL     1      48.335  37.711  27.667  1.00  0.00     0.054 C 
BRANCH  13  14
ATOM     14  C   UNL     1      47.384  37.768  26.505  1.00  0.00    -0.027 C 
ATOM     15  C   UNL     1      47.120  36.718  25.711  1.00  0.00    -0.031 C 
BRANCH  15  16
ATOM     16  C   UNL     1      47.696  35.331  25.809  1.00  0.00     0.027 C 
BRANCH  16  17
ATOM     17  C   UNL     1      46.753  34.167  25.482  1.00  0.00     0.004 C 
BRANCH  17  18
ATOM     18  C   UNL     1      47.180  32.889  26.211  1.00  0.00     0.000 C 
BRANCH  18  19
ATOM     19  C   UNL     1      48.691  32.650  26.180  1.00  0.00    -0.003 C 
ATOM     20  C   UNL     1      49.206  32.194  24.824  1.00  0.00     0.004 C 
ENDBRANCH  18  19
ENDBRANCH  17  18
ENDBRANCH  16  17
ENDBRANCH  15  16
ENDBRANCH  13  14
ENDBRANCH  12  13
ENDBRANCH   1  11
TORSDOF 14
ENDMDL
MODEL 9
REMARK VINA RESULT:    -5.229      1.757      2.229
REMARK INTER + INTRA:         -11.393
REMARK INTER:                  -9.767
REMARK INTRA:                  -1.627
REMARK UNBOUND:                -1.884
REMARK SMILES CCCCC/C=C\C/C=C\CCCCCCCC(=O)[O-]
REMARK SMILES IDX 11 1 12 2 13 3 14 4 15 5 16 6 17 7 18 8 19 9 20 10 10 11
REMARK SMILES IDX 9 12 8 13 7 14 6 15 5 16 4 17 3 18 2 19 1 20
REMARK H PARENT
REMARK INDEX MAP 8 1 6 2 4 3 3 4 5 5 7 6 9 7 18 8 2 9 1 10 12 11 15 12 16 13
REMARK INDEX MAP 19 14 17 15 13 16 10 17 11 18 14 19 20 20
ROOT
ATOM      1  C   UNL     1      48.734  35.931  29.436  1.00  0.00     0.027 C 
ENDROOT
BRANCH   1   2
ATOM      2  C   UNL     1      48.029  34.718  30.053  1.00  0.00     0.004 C 
BRANCH   2   3
ATOM      3  C   UNL     1      47.605  34.939  31.509  1.00  0.00     0.000 C 
BRANCH   3   4
ATOM      4  C   UNL     1      48.756  34.776  32.507  1.00  0.00     0.000 C 
BRANCH   4   5
ATOM      5  C   UNL     1      48.317  34.181  33.848  1.00  0.00     0.000 C 
BRANCH   5   6
ATOM      6  C   UNL     1      47.685  32.797  33.659  1.00  0.00     0.006 C 
BRANCH   6   7
ATOM      7  C   UNL     1      46.442  32.600  34.525  1.00  0.00     0.053 C 
BRANCH   7   8
ATOM      8  C   UNL     1      45.308  33.526  34.155  1.00  0.00     0.041 C 
ATOM      9  O   UNL     1      44.872  34.439  34.839  1.00  0.00    -0.550 OA
ATOM     10  O   UNL     1      44.842  33.222  32.917  1.00  0.00    -0.550 OA
ENDBRANCH   7   8
ENDBRANCH   6   7
ENDBRANCH   5   6
ENDBRANCH   4   5
ENDBRANCH   3   4
ENDBRANCH   2   3
ENDBRANCH   1   2
BRANCH   1  11
ATOM     11  C   UNL     1      47.778  36.973  28.928  1.00  0.00    -0.031 C 
ATOM     12  C   UNL     1      47.476  37.137  27.631  1.00  0.00    -0.027 C 
BRANCH  12  13
ATOM     13  C   UNL     1      48.054  36.299  26.529  1.00  0.00     0.054 C 
BRANCH  13  14
ATOM     14  C   UNL     1      47.056  36.072  25.428  1.00  0.00    -0.027 C 
ATOM     15  C   UNL     1      46.277  34.982  25.348  1.00  0.00    -0.031 C 
BRANCH  15  16
ATOM     16  C   UNL     1      46.241  33.813  26.295  1.00  0.00     0.027 C 
BRANCH  16  17
ATOM     17  C   UNL     1      46.741  32.469  25.752  1.00  0.00     0.004 C 
BRANCH  17  18
ATOM     18  C   UNL     1      48.214  32.243  26.109  1.00  0.00     0.000 C 
BRANCH  18  19
ATOM     19  C   UNL     1      49.154  32.373  24.909  1.00  0.00    -0.003 C 
ATOM     20  C   UNL     1      50.516  32.949  25.264  1.00  0.00     0.004 C 
ENDBRANCH  18  19
ENDBRANCH  17  18
ENDBRANCH  16  17
ENDBRANCH  15  16
ENDBRANCH  13  14
ENDBRANCH  12  13
ENDBRANCH   1  11
TORSDOF 14
ENDMDL
MODEL 10
REMARK VINA RESULT:    -5.194      2.351      3.641
REMARK INTER + INTRA:         -11.329
REMARK INTER:                  -9.434
REMARK INTRA:                  -1.895
REMARK UNBOUND:                -1.884
REMARK SMILES CCCCC/C=C\C/C=C\CCCCCCCC(=O)[O-]
REMARK SMILES IDX 11 1 12 2 13 3 14 4 15 5 16 6 17 7 18 8 19 9 20 10 10 11
REMARK SMILES IDX 9 12 8 13 7 14 6 15 5 16 4 17 3 18 2 19 1 20
REMARK H PARENT
REMARK INDEX MAP 8 1 6 2 4 3 3 4 5 5 7 6 9 7 18 8 2 9 1 10 12 11 15 12 16 13
REMARK INDEX MAP 19 14 17 15 13 16 10 17 11 18 14 19 20 20
ROOT
ATOM      1  C   UNL     1      48.787  34.616  29.429  1.00  0.00     0.027 C 
ENDROOT
BRANCH   1   2
ATOM      2  C   UNL     1      48.769  33.352  30.296  1.00  0.00     0.004 C 
BRANCH   2   3
ATOM      3  C   UNL     1      47.423  33.113  30.990  1.00  0.00     0.000 C 
BRANCH   3   4
ATOM      4  C   UNL     1      47.315  31.730  31.641  1.00  0.00     0.000 C 
BRANCH   4   5
ATOM      5  C   UNL     1      45.959  31.056  31.412  1.00  0.00     0.000 C 
BRANCH   5   6
ATOM      6  C   UNL     1      44.918  31.548  32.424  1.00  0.00     0.006 C 
BRANCH   6   7
ATOM      7  C   UNL     1      45.535  31.871  33.785  1.00  0.00     0.053 C 
BRANCH   7   8
ATOM      8  C   UNL     1      45.422  33.329  34.157  1.00  0.00     0.041 C 
ATOM      9  O   UNL     1      45.871  33.852  35.165  1.00  0.00    -0.550 OA
ATOM     10  O   UNL     1      44.765  34.010  33.183  1.00  0.00    -0.550 OA
ENDBRANCH   7   8
ENDBRANCH   6   7
ENDBRANCH   5   6
ENDBRANCH   4   5
ENDBRANCH   3   4
ENDBRANCH   2   3
ENDBRANCH   1   2
BRANCH   1  11
ATOM     11  C   UNL     1      47.779  35.643  29.861  1.00  0.00    -0.031 C 
ATOM     12  C   UNL     1      47.655  36.850  29.290  1.00  0.00    -0.027 C 
BRANCH  12  13
ATOM     13  C   UNL     1      48.505  37.324  28.149  1.00  0.00     0.054 C 
BRANCH  13  14
ATOM     14  C   UNL     1      47.669  37.885  27.034  1.00  0.00    -0.027 C 
ATOM     15  C   UNL     1      47.247  37.159  25.987  1.00  0.00    -0.031 C 
BRANCH  15  16
ATOM     16  C   UNL     1      47.510  35.701  25.720  1.00  0.00     0.027 C 
BRANCH  16  17
ATOM     17  C   UNL     1      46.437  34.937  24.935  1.00  0.00     0.004 C 
BRANCH  17  18
ATOM     18  C   UNL     1      46.116  33.596  25.601  1.00  0.00     0.000 C 
BRANCH  18  19
ATOM     19  C   UNL     1      46.351  33.599  27.113  1.00  0.00    -0.003 C 
ATOM     20  C   UNL     1      46.070  32.259  27.774  1.00  0.00     0.004 C 
ENDBRANCH  18  19
ENDBRANCH  17  18
ENDBRANCH  16  17
ENDBRANCH  15  16
ENDBRANCH  13  14
ENDBRANCH  12  13
ENDBRANCH   1  11
TORSDOF 14
ENDMDL
MODEL 11
REMARK VINA RESULT:    -5.136      2.228      3.872
REMARK INTER + INTRA:         -11.224
REMARK INTER:                  -9.523
REMARK INTRA:                  -1.701
REMARK UNBOUND:                -1.884
REMARK SMILES CCCCC/C=C\C/C=C\CCCCCCCC(=O)[O-]
REMARK SMILES IDX 11 1 12 2 13 3 14 4 15 5 16 6 17 7 18 8 19 9 20 10 10 11
REMARK SMILES IDX 9 12 8 13 7 14 6 15 5 16 4 17 3 18 2 19 1 20
REMARK H PARENT
REMARK INDEX MAP 8 1 6 2 4 3 3 4 5 5 7 6 9 7 18 8 2 9 1 10 12 11 15 12 16 13
REMARK INDEX MAP 19 14 17 15 13 16 10 17 11 18 14 19 20 20
ROOT
ATOM      1  C   UNL     1      49.149  35.670  31.870  1.00  0.00     0.027 C 
ENDROOT
BRANCH   1   2
ATOM      2  C   UNL     1      48.276  34.870  32.843  1.00  0.00     0.004 C 
BRANCH   2   3
ATOM      3  C   UNL     1      49.086  33.992  33.803  1.00  0.00     0.000 C 
BRANCH   3   4
ATOM      4  C   UNL     1      49.123  32.517  33.390  1.00  0.00     0.000 C 
BRANCH   4   5
ATOM      5  C   UNL     1      47.786  32.004  32.851  1.00  0.00     0.000 C 
BRANCH   5   6
ATOM      6  C   UNL     1      46.897  31.478  33.985  1.00  0.00     0.006 C 
BRANCH   6   7
ATOM      7  C   UNL     1      45.446  31.935  33.848  1.00  0.00     0.053 C 
BRANCH   7   8
ATOM      8  C   UNL     1      45.279  33.429  33.987  1.00  0.00     0.041 C 
ATOM      9  O   UNL     1      44.695  34.164  33.205  1.00  0.00    -0.550 OA
ATOM     10  O   UNL     1      45.851  33.858  35.140  1.00  0.00    -0.550 OA
ENDBRANCH   7   8
ENDBRANCH   6   7
ENDBRANCH   5   6
ENDBRANCH   4   5
ENDBRANCH   3   4
ENDBRANCH   2   3
ENDBRANCH   1   2
BRANCH   1  11
ATOM     11  C   UNL     1      49.324  34.991  30.541  1.00  0.00    -0.031 C 
ATOM     12  C   UNL     1      48.725  35.399  29.412  1.00  0.00    -0.027 C 
BRANCH  12  13
ATOM     13  C   UNL     1      47.808  36.585  29.337  1.00  0.00     0.054 C 
BRANCH  13  14
ATOM     14  C   UNL     1      48.363  37.654  28.440  1.00  0.00    -0.027 C 
ATOM     15  C   UNL     1      47.969  37.834  27.169  1.00  0.00    -0.031 C 
BRANCH  15  16
ATOM     16  C   UNL     1      46.941  37.039  26.410  1.00  0.00     0.027 C 
BRANCH  16  17
ATOM     17  C   UNL     1      47.456  35.860  25.576  1.00  0.00     0.004 C 
BRANCH  17  18
ATOM     18  C   UNL     1      46.387  34.771  25.440  1.00  0.00     0.000 C 
BRANCH  18  19
ATOM     19  C   UNL     1      46.796  33.438  26.070  1.00  0.00    -0.003 C 
ATOM     20  C   UNL     1      46.185  33.202  27.443  1.00  0.00     0.004 C 
ENDBRANCH  18  19
ENDBRANCH  17  18
ENDBRANCH  16  17
ENDBRANCH  15  16
ENDBRANCH  13  14
ENDBRANCH  12  13
ENDBRANCH   1  11
TORSDOF 14
ENDMDL
MODEL 12
REMARK VINA RESULT:    -5.135      1.868      4.034
REMARK INTER + INTRA:         -11.221
REMARK INTER:                  -9.286
REMARK INTRA:                  -1.936
REMARK UNBOUND:                -1.884
REMARK SMILES CCCCC/C=C\C/C=C\CCCCCCCC(=O)[O-]
REMARK SMILES IDX 11 1 12 2 13 3 14 4 15 5 16 6 17 7 18 8 19 9 20 10 10 11
REMARK SMILES IDX 9 12 8 13 7 14 6 15 5 16 4 17 3 18 2 19 1 20
REMARK H PARENT
REMARK INDEX MAP 8 1 6 2 4 3 3 4 5 5 7 6 9 7 18 8 2 9 1 10 12 11 15 12 16 13
REMARK INDEX MAP 19 14 17 15 13 16 10 17 11 18 14 19 20 20
ROOT
ATOM      1  C   UNL     1      47.250  33.299  28.258  1.00  0.00     0.027 C 
ENDROOT
BRANCH   1   2
ATOM      2  C   UNL     1      48.731  33.045  28.561  1.00  0.00     0.004 C 
BRANCH   2   3
ATOM      3  C   UNL     1      49.224  33.765  29.821  1.00  0.00     0.000 C 
BRANCH   3   4
ATOM      4  C   UNL     1      49.482  32.818  30.998  1.00  0.00     0.000 C 
BRANCH   4   5
ATOM      5  C   UNL     1      48.882  33.313  32.317  1.00  0.00     0.000 C 
BRANCH   5   6
ATOM      6  C   UNL     1      47.541  34.019  32.084  1.00  0.00     0.006 C 
BRANCH   6   7
ATOM      7  C   UNL     1      46.896  34.490  33.387  1.00  0.00     0.053 C 
BRANCH   7   8
ATOM      8  C   UNL     1      45.528  33.895  33.621  1.00  0.00     0.041 C 
ATOM      9  O   UNL     1      44.899  33.205  32.834  1.00  0.00    -0.550 OA
ATOM     10  O   UNL     1      45.089  34.211  34.866  1.00  0.00    -0.550 OA
ENDBRANCH   7   8
ENDBRANCH   6   7
ENDBRANCH   5   6
ENDBRANCH   4   5
ENDBRANCH   3   4
ENDBRANCH   2   3
ENDBRANCH   1   2
BRANCH   1  11
ATOM     11  C   UNL     1      46.641  32.249  27.373  1.00  0.00    -0.031 C 
ATOM     12  C   UNL     1      46.695  32.280  26.033  1.00  0.00    -0.027 C 
BRANCH  12  13
ATOM     13  C   UNL     1      47.373  33.367  25.252  1.00  0.00     0.054 C 
BRANCH  13  14
ATOM     14  C   UNL     1      46.424  34.484  24.926  1.00  0.00    -0.027 C 
ATOM     15  C   UNL     1      46.619  35.757  25.306  1.00  0.00    -0.031 C 
BRANCH  15  16
ATOM     16  C   UNL     1      47.772  36.306  26.103  1.00  0.00     0.027 C 
BRANCH  16  17
ATOM     17  C   UNL     1      47.830  37.829  26.276  1.00  0.00     0.004 C 
BRANCH  17  18
ATOM     18  C   UNL     1      48.191  38.207  27.715  1.00  0.00     0.000 C 
BRANCH  18  19
ATOM     19  C   UNL     1      48.298  37.001  28.651  1.00  0.00    -0.003 C 
ATOM     20  C   UNL     1      47.290  37.024  29.789  1.00  0.00     0.004 C 
ENDBRANCH  18  19
ENDBRANCH  17  18
ENDBRANCH  16  17
ENDBRANCH  15  16
ENDBRANCH  13  14
ENDBRANCH  12  13
ENDBRANCH   1  11
TORSDOF 14
ENDMDL
MODEL 13
REMARK VINA RESULT:    -5.130      1.660      3.278
REMARK INTER + INTRA:         -11.212
REMARK INTER:                  -9.585
REMARK INTRA:                  -1.627
REMARK UNBOUND:                -1.884
REMARK SMILES CCCCC/C=C\C/C=C\CCCCCCCC(=O)[O-]
REMARK SMILES IDX 11 1 12 2 13 3 14 4 15 5 16 6 17 7 18 8 19 9 20 10 10 11
REMARK SMILES IDX 9 12 8 13 7 14 6 15 5 16 4 17 3 18 2 19 1 20
REMARK H PARENT
REMARK INDEX MAP 8 1 6 2 4 3 3 4 5 5 7 6 9 7 18 8 2 9 1 10 12 11 15 12 16 13
REMARK INDEX MAP 19 14 17 15 13 16 10 17 11 18 14 19 20 20
ROOT
ATOM      1  C   UNL     1      48.059  36.833  25.856  1.00  0.00     0.027 C 
ENDROOT
BRANCH   1   2
ATOM      2  C   UNL     1      47.603  37.948  26.804  1.00  0.00     0.004 C 
BRANCH   2   3
ATOM      3  C   UNL     1      48.275  37.886  28.180  1.00  0.00     0.000 C 
BRANCH   3   4
ATOM      4  C   UNL     1      47.659  36.833  29.108  1.00  0.00     0.000 C 
BRANCH   4   5
ATOM      5  C   UNL     1      48.701  35.940  29.787  1.00  0.00     0.000 C 
BRANCH   5   6
ATOM      6  C   UNL     1      48.060  35.075  30.879  1.00  0.00     0.006 C 
BRANCH   6   7
ATOM      7  C   UNL     1      48.172  35.707  32.266  1.00  0.00     0.053 C 
BRANCH   7   8
ATOM      8  C   UNL     1      46.860  36.248  32.780  1.00  0.00     0.041 C 
ATOM      9  O   UNL     1      45.772  35.698  32.696  1.00  0.00    -0.550 OA
ATOM     10  O   UNL     1      47.055  37.444  33.391  1.00  0.00    -0.550 OA
ENDBRANCH   7   8
ENDBRANCH   6   7
ENDBRANCH   5   6
ENDBRANCH   4   5
ENDBRANCH   3   4
ENDBRANCH   2   3
ENDBRANCH   1   2
BRANCH   1  11
ATOM     11  C   UNL     1      46.972  35.845  25.542  1.00  0.00    -0.031 C 
ATOM     12  C   UNL     1      47.123  34.515  25.642  1.00  0.00    -0.027 C 
BRANCH  12  13
ATOM     13  C   UNL     1      48.395  33.852  26.081  1.00  0.00     0.054 C 
BRANCH  13  14
ATOM     14  C   UNL     1      48.985  33.011  24.985  1.00  0.00    -0.027 C 
ATOM     15  C   UNL     1      48.851  31.677  24.921  1.00  0.00    -0.031 C 
BRANCH  15  16
ATOM     16  C   UNL     1      48.120  30.785  25.887  1.00  0.00     0.027 C 
BRANCH  16  17
ATOM     17  C   UNL     1      46.589  30.783  25.804  1.00  0.00     0.004 C 
BRANCH  17  18
ATOM     18  C   UNL     1      45.976  29.941  26.926  1.00  0.00     0.000 C 
BRANCH  18  19
ATOM     19  C   UNL     1      45.935  30.665  28.274  1.00  0.00    -0.003 C 
ATOM     20  C   UNL     1      45.707  32.164  28.151  1.00  0.00     0.004 C 
ENDBRANCH  18  19
ENDBRANCH  17  18
ENDBRANCH  16  17
ENDBRANCH  15  16
ENDBRANCH  13  14
ENDBRANCH  12  13
ENDBRANCH   1  11
TORSDOF 14
ENDMDL
MODEL 14
REMARK VINA RESULT:    -5.127      4.553      7.646
REMARK INTER + INTRA:         -11.207
REMARK INTER:                  -9.207
REMARK INTRA:                  -2.001
REMARK UNBOUND:                -1.884
REMARK SMILES CCCCC/C=C\C/C=C\CCCCCCCC(=O)[O-]
REMARK SMILES IDX 11 1 12 2 13 3 14 4 15 5 16 6 17 7 18 8 19 9 20 10 10 11
REMARK SMILES IDX 9 12 8 13 7 14 6 15 5 16 4 17 3 18 2 19 1 20
REMARK H PARENT
REMARK INDEX MAP 8 1 6 2 4 3 3 4 5 5 7 6 9 7 18 8 2 9 1 10 12 11 15 12 16 13
REMARK INDEX MAP 19 14 17 15 13 16 10 17 11 18 14 19 20 20
ROOT
ATOM      1  C   UNL     1      46.585  33.455  26.718  1.00  0.00     0.027 C 
ENDROOT
BRANCH   1   2
ATOM      2  C   UNL     1      46.907  32.015  26.303  1.00  0.00     0.004 C 
BRANCH   2   3
ATOM      3  C   UNL     1      48.410  31.719  26.256  1.00  0.00     0.000 C 
BRANCH   3   4
ATOM      4  C   UNL     1      49.099  32.281  25.007  1.00  0.00     0.000 C 
BRANCH   4   5
ATOM      5  C   UNL     1      50.352  33.101  25.324  1.00  0.00     0.000 C 
BRANCH   5   6
ATOM      6  C   UNL     1      51.448  32.221  25.937  1.00  0.00     0.006 C 
BRANCH   6   7
ATOM      7  C   UNL     1      52.712  32.180  25.079  1.00  0.00     0.053 C 
BRANCH   7   8
ATOM      8  C   UNL     1      53.944  32.649  25.814  1.00  0.00     0.041 C 
ATOM      9  O   UNL     1      54.125  33.764  26.277  1.00  0.00    -0.550 OA
ATOM     10  O   UNL     1      54.838  31.633  25.924  1.00  0.00    -0.550 OA
ENDBRANCH   7   8
ENDBRANCH   6   7
ENDBRANCH   5   6
ENDBRANCH   4   5
ENDBRANCH   3   4
ENDBRANCH   2   3
ENDBRANCH   1   2
BRANCH   1  11
ATOM     11  C   UNL     1      46.058  34.291  25.586  1.00  0.00    -0.031 C 
ATOM     12  C   UNL     1      46.628  35.434  25.177  1.00  0.00    -0.027 C 
BRANCH  12  13
ATOM     13  C   UNL     1      47.863  36.018  25.797  1.00  0.00     0.054 C 
BRANCH  13  14
ATOM     14  C   UNL     1      47.731  37.501  25.996  1.00  0.00    -0.027 C 
ATOM     15  C   UNL     1      48.021  38.123  27.150  1.00  0.00    -0.031 C 
BRANCH  15  16
ATOM     16  C   UNL     1      48.514  37.496  28.426  1.00  0.00     0.027 C 
BRANCH  16  17
ATOM     17  C   UNL     1      47.455  36.874  29.345  1.00  0.00     0.004 C 
BRANCH  17  18
ATOM     18  C   UNL     1      48.087  35.876  30.319  1.00  0.00     0.000 C 
BRANCH  18  19
ATOM     19  C   UNL     1      47.907  34.417  29.894  1.00  0.00    -0.003 C 
ATOM     20  C   UNL     1      49.214  33.713  29.566  1.00  0.00     0.004 C 
ENDBRANCH  18  19
ENDBRANCH  17  18
ENDBRANCH  16  17
ENDBRANCH  15  16
ENDBRANCH  13  14
ENDBRANCH  12  13
ENDBRANCH   1  11
TORSDOF 14
ENDMDL
MODEL 15
REMARK VINA RESULT:    -5.084      1.590      2.104
REMARK INTER + INTRA:         -11.129
REMARK INTER:                  -9.015
REMARK INTRA:                  -2.113
REMARK UNBOUND:                -1.884
REMARK SMILES CCCCC/C=C\C/C=C\CCCCCCCC(=O)[O-]
REMARK SMILES IDX 11 1 12 2 13 3 14 4 15 5 16 6 17 7 18 8 19 9 20 10 10 11
REMARK SMILES IDX 9 12 8 13 7 14 6 15 5 16 4 17 3 18 2 19 1 20
REMARK H PARENT
REMARK INDEX MAP 8 1 6 2 4 3 3 4 5 5 7 6 9 7 18 8 2 9 1 10 12 11 15 12 16 13
REMARK INDEX MAP 19 14 17 15 13 16 10 17 11 18 14 19 20 20
ROOT
ATOM      1  C   UNL     1      47.724  37.293  28.925  1.00  0.00     0.027 C 
ENDROOT
BRANCH   1   2
ATOM      2  C   UNL     1      48.821  36.345  29.422  1.00  0.00     0.004 C 
BRANCH   2   3
ATOM      3  C   UNL     1      48.474  34.864  29.231  1.00  0.00     0.000 C 
BRANCH   3   4
ATOM      4  C   UNL     1      47.885  34.213  30.487  1.00  0.00     0.000 C 
BRANCH   4   5
ATOM      5  C   UNL     1      48.874  34.138  31.652  1.00  0.00     0.000 C 
BRANCH   5   6
ATOM      6  C   UNL     1      48.439  35.048  32.807  1.00  0.00     0.006 C 
BRANCH   6   7
ATOM      7  C   UNL     1      46.920  35.197  32.891  1.00  0.00     0.053 C 
BRANCH   7   8
ATOM      8  C   UNL     1      46.456  36.628  32.764  1.00  0.00     0.041 C 
ATOM      9  O   UNL     1      45.451  37.010  32.185  1.00  0.00    -0.550 OA
ATOM     10  O   UNL     1      47.309  37.456  33.420  1.00  0.00    -0.550 OA
ENDBRANCH   7   8
ENDBRANCH   6   7
ENDBRANCH   5   6
ENDBRANCH   4   5
ENDBRANCH   3   4
ENDBRANCH   2   3
ENDBRANCH   1   2
BRANCH   1  11
ATOM     11  C   UNL     1      48.158  38.138  27.760  1.00  0.00    -0.031 C 
ATOM     12  C   UNL     1      47.841  37.867  26.485  1.00  0.00    -0.027 C 
BRANCH  12  13
ATOM     13  C   UNL     1      47.014  36.688  26.064  1.00  0.00     0.054 C 
BRANCH  13  14
ATOM     14  C   UNL     1      47.875  35.542  25.616  1.00  0.00    -0.027 C 
ATOM     15  C   UNL     1      47.492  34.257  25.682  1.00  0.00    -0.031 C 
BRANCH  15  16
ATOM     16  C   UNL     1      46.184  33.719  26.196  1.00  0.00     0.027 C 
BRANCH  16  17
ATOM     17  C   UNL     1      46.260  32.607  27.249  1.00  0.00     0.004 C 
BRANCH  17  18
ATOM     18  C   UNL     1      47.629  31.922  27.230  1.00  0.00     0.000 C 
BRANCH  18  19
ATOM     19  C   UNL     1      47.646  30.623  26.421  1.00  0.00    -0.003 C 
ATOM     20  C   UNL     1      46.261  30.136  26.025  1.00  0.00     0.004 C 
ENDBRANCH  18  19
ENDBRANCH  17  18
ENDBRANCH  16  17
ENDBRANCH  15  16
ENDBRANCH  13  14
ENDBRANCH  12  13
ENDBRANCH   1  11
TORSDOF 14
ENDMDL
MODEL 16
REMARK VINA RESULT:    -5.028      1.796      2.570
REMARK INTER + INTRA:         -11.027
REMARK INTER:                  -9.192
REMARK INTRA:                  -1.835
REMARK UNBOUND:                -1.884
REMARK SMILES CCCCC/C=C\C/C=C\CCCCCCCC(=O)[O-]
REMARK SMILES IDX 11 1 12 2 13 3 14 4 15 5 16 6 17 7 18 8 19 9 20 10 10 11
REMARK SMILES IDX 9 12 8 13 7 14 6 15 5 16 4 17 3 18 2 19 1 20
REMARK H PARENT
REMARK INDEX MAP 8 1 6 2 4 3 3 4 5 5 7 6 9 7 18 8 2 9 1 10 12 11 15 12 16 13
REMARK INDEX MAP 19 14 17 15 13 16 10 17 11 18 14 19 20 20
ROOT
ATOM      1  C   UNL     1      48.275  35.772  28.736  1.00  0.00     0.027 C 
ENDROOT
BRANCH   1   2
ATOM      2  C   UNL     1      48.045  35.454  30.218  1.00  0.00     0.004 C 
BRANCH   2   3
ATOM      3  C   UNL     1      49.343  35.356  31.026  1.00  0.00     0.000 C 
BRANCH   3   4
ATOM      4  C   UNL     1      49.161  35.695  32.509  1.00  0.00     0.000 C 
BRANCH   4   5
ATOM      5  C   UNL     1      49.304  34.481  33.431  1.00  0.00     0.000 C 
BRANCH   5   6
ATOM      6  C   UNL     1      47.974  33.730  33.567  1.00  0.00     0.006 C 
BRANCH   6   7
ATOM      7  C   UNL     1      46.766  34.664  33.490  1.00  0.00     0.053 C 
BRANCH   7   8
ATOM      8  C   UNL     1      45.450  33.948  33.677  1.00  0.00     0.041 C 
ATOM      9  O   UNL     1      44.953  33.142  32.907  1.00  0.00    -0.550 OA
ATOM     10  O   UNL     1      44.890  34.305  34.861  1.00  0.00    -0.550 OA
ENDBRANCH   7   8
ENDBRANCH   6   7
ENDBRANCH   5   6
ENDBRANCH   4   5
ENDBRANCH   3   4
ENDBRANCH   2   3
ENDBRANCH   1   2
BRANCH   1  11
ATOM     11  C   UNL     1      47.789  37.138  28.344  1.00  0.00    -0.031 C 
ATOM     12  C   UNL     1      47.640  37.539  27.072  1.00  0.00    -0.027 C 
BRANCH  12  13
ATOM     13  C   UNL     1      47.939  36.673  25.885  1.00  0.00     0.054 C 
BRANCH  13  14
ATOM     14  C   UNL     1      46.721  35.920  25.431  1.00  0.00    -0.027 C 
ATOM     15  C   UNL     1      46.671  34.582  25.331  1.00  0.00    -0.031 C 
BRANCH  15  16
ATOM     16  C   UNL     1      47.771  33.602  25.635  1.00  0.00     0.027 C 
BRANCH  16  17
ATOM     17  C   UNL     1      47.469  32.530  26.690  1.00  0.00     0.004 C 
BRANCH  17  18
ATOM     18  C   UNL     1      46.348  32.981  27.631  1.00  0.00     0.000 C 
BRANCH  18  19
ATOM     19  C   UNL     1      45.915  31.898  28.621  1.00  0.00    -0.003 C 
ATOM     20  C   UNL     1      46.643  31.968  29.954  1.00  0.00     0.004 C 
ENDBRANCH  18  19
ENDBRANCH  17  18
ENDBRANCH  16  17
ENDBRANCH  15  16
ENDBRANCH  13  14
ENDBRANCH  12  13
ENDBRANCH   1  11
TORSDOF 14
ENDMDL
MODEL 17
REMARK VINA RESULT:    -5.005      2.009      3.823
REMARK INTER + INTRA:         -10.985
REMARK INTER:                  -8.751
REMARK INTRA:                  -2.234
REMARK UNBOUND:                -1.884
REMARK SMILES CCCCC/C=C\C/C=C\CCCCCCCC(=O)[O-]
REMARK SMILES IDX 11 1 12 2 13 3 14 4 15 5 16 6 17 7 18 8 19 9 20 10 10 11
REMARK SMILES IDX 9 12 8 13 7 14 6 15 5 16 4 17 3 18 2 19 1 20
REMARK H PARENT
REMARK INDEX MAP 8 1 6 2 4 3 3 4 5 5 7 6 9 7 18 8 2 9 1 10 12 11 15 12 16 13
REMARK INDEX MAP 19 14 17 15 13 16 10 17 11 18 14 19 20 20
ROOT
ATOM      1  C   UNL     1      48.133  34.984  26.248  1.00  0.00     0.027 C 
ENDROOT
BRANCH   1   2
ATOM      2  C   UNL     1      48.054  36.471  25.885  1.00  0.00     0.004 C 
BRANCH   2   3
ATOM      3  C   UNL     1      47.330  37.315  26.940  1.00  0.00     0.000 C 
BRANCH   3   4
ATOM      4  C   UNL     1      48.193  37.622  28.168  1.00  0.00     0.000 C 
BRANCH   4   5
ATOM      5  C   UNL     1      47.634  37.033  29.465  1.00  0.00     0.000 C 
BRANCH   5   6
ATOM      6  C   UNL     1      48.590  35.989  30.057  1.00  0.00     0.006 C 
BRANCH   6   7
ATOM      7  C   UNL     1      47.958  35.204  31.205  1.00  0.00     0.053 C 
BRANCH   7   8
ATOM      8  C   UNL     1      48.290  35.770  32.564  1.00  0.00     0.041 C 
ATOM      9  O   UNL     1      49.267  36.449  32.843  1.00  0.00    -0.550 OA
ATOM     10  O   UNL     1      47.320  35.443  33.456  1.00  0.00    -0.550 OA
ENDBRANCH   7   8
ENDBRANCH   6   7
ENDBRANCH   5   6
ENDBRANCH   4   5
ENDBRANCH   3   4
ENDBRANCH   2   3
ENDBRANCH   1   2
BRANCH   1  11
ATOM     11  C   UNL     1      46.955  34.510  27.053  1.00  0.00    -0.031 C 
ATOM     12  C   UNL     1      46.137  33.521  26.664  1.00  0.00    -0.027 C 
BRANCH  12  13
ATOM     13  C   UNL     1      46.296  32.765  25.378  1.00  0.00     0.054 C 
BRANCH  13  14
ATOM     14  C   UNL     1      46.848  31.388  25.613  1.00  0.00    -0.027 C 
ATOM     15  C   UNL     1      48.062  30.995  25.196  1.00  0.00    -0.031 C 
BRANCH  15  16
ATOM     16  C   UNL     1      49.076  31.811  24.440  1.00  0.00     0.027 C 
BRANCH  16  17
ATOM     17  C   UNL     1      50.552  31.570  24.783  1.00  0.00     0.004 C 
BRANCH  17  18
ATOM     18  C   UNL     1      51.008  32.485  25.924  1.00  0.00     0.000 C 
BRANCH  18  19
ATOM     19  C   UNL     1      50.967  31.809  27.296  1.00  0.00    -0.003 C 
ATOM     20  C   UNL     1      49.802  32.263  28.162  1.00  0.00     0.004 C 
ENDBRANCH  18  19
ENDBRANCH  17  18
ENDBRANCH  16  17
ENDBRANCH  15  16
ENDBRANCH  13  14
ENDBRANCH  12  13
ENDBRANCH   1  11
TORSDOF 14
ENDMDL
MODEL 18
REMARK VINA RESULT:    -4.936      2.217      4.009
REMARK INTER + INTRA:         -10.860
REMARK INTER:                  -8.468
REMARK INTRA:                  -2.392
REMARK UNBOUND:                -1.884
REMARK SMILES CCCCC/C=C\C/C=C\CCCCCCCC(=O)[O-]
REMARK SMILES IDX 11 1 12 2 13 3 14 4 15 5 16 6 17 7 18 8 19 9 20 10 10 11
REMARK SMILES IDX 9 12 8 13 7 14 6 15 5 16 4 17 3 18 2 19 1 20
REMARK H PARENT
REMARK INDEX MAP 8 1 6 2 4 3 3 4 5 5 7 6 9 7 18 8 2 9 1 10 12 11 15 12 16 13
REMARK INDEX MAP 19 14 17 15 13 16 10 17 11 18 14 19 20 20
ROOT
ATOM      1  C   UNL     1      47.840  36.173  26.042  1.00  0.00     0.027 C 
ENDROOT
BRANCH   1   2
ATOM      2  C   UNL     1      47.577  37.522  26.721  1.00  0.00     0.004 C 
BRANCH   2   3
ATOM      3  C   UNL     1      48.003  37.553  28.192  1.00  0.00     0.000 C 
BRANCH   3   4
ATOM      4  C   UNL     1      47.908  36.187  28.880  1.00  0.00     0.000 C 
BRANCH   4   5
ATOM      5  C   UNL     1      49.116  35.868  29.764  1.00  0.00     0.000 C 
BRANCH   5   6
ATOM      6  C   UNL     1      48.714  35.783  31.242  1.00  0.00     0.006 C 
BRANCH   6   7
ATOM      7  C   UNL     1      47.215  35.997  31.451  1.00  0.00     0.053 C 
BRANCH   7   8
ATOM      8  C   UNL     1      46.861  36.364  32.872  1.00  0.00     0.041 C 
ATOM      9  O   UNL     1      46.958  37.473  33.374  1.00  0.00    -0.550 OA
ATOM     10  O   UNL     1      46.379  35.278  33.528  1.00  0.00    -0.550 OA
ENDBRANCH   7   8
ENDBRANCH   6   7
ENDBRANCH   5   6
ENDBRANCH   4   5
ENDBRANCH   3   4
ENDBRANCH   2   3
ENDBRANCH   1   2
BRANCH   1  11
ATOM     11  C   UNL     1      46.645  35.641  25.304  1.00  0.00    -0.031 C 
ATOM     12  C   UNL     1      46.222  34.370  25.388  1.00  0.00    -0.027 C 
BRANCH  12  13
ATOM     13  C   UNL     1      46.891  33.324  26.229  1.00  0.00     0.054 C 
BRANCH  13  14
ATOM     14  C   UNL     1      46.117  33.053  27.488  1.00  0.00    -0.027 C 
ATOM     15  C   UNL     1      46.686  32.647  28.635  1.00  0.00    -0.031 C 
BRANCH  15  16
ATOM     16  C   UNL     1      48.147  32.389  28.888  1.00  0.00     0.027 C 
BRANCH  16  17
ATOM     17  C   UNL     1      48.544  32.014  30.321  1.00  0.00     0.004 C 
BRANCH  17  18
ATOM     18  C   UNL     1      47.415  32.328  31.307  1.00  0.00     0.000 C 
BRANCH  18  19
ATOM     19  C   UNL     1      47.003  31.126  32.160  1.00  0.00    -0.003 C 
ATOM     20  C   UNL     1      45.955  30.244  31.501  1.00  0.00     0.004 C 
ENDBRANCH  18  19
ENDBRANCH  17  18
ENDBRANCH  16  17
ENDBRANCH  15  16
ENDBRANCH  13  14
ENDBRANCH  12  13
ENDBRANCH   1  11
TORSDOF 14
ENDMDL
MODEL 19
REMARK VINA RESULT:    -4.899      2.488      3.859
REMARK INTER + INTRA:         -10.793
REMARK INTER:                  -8.448
REMARK INTRA:                  -2.345
REMARK UNBOUND:                -1.884
REMARK SMILES CCCCC/C=C\C/C=C\CCCCCCCC(=O)[O-]
REMARK SMILES IDX 11 1 12 2 13 3 14 4 15 5 16 6 17 7 18 8 19 9 20 10 10 11
REMARK SMILES IDX 9 12 8 13 7 14 6 15 5 16 4 17 3 18 2 19 1 20
REMARK H PARENT
REMARK INDEX MAP 8 1 6 2 4 3 3 4 5 5 7 6 9 7 18 8 2 9 1 10 12 11 15 12 16 13
REMARK INDEX MAP 19 14 17 15 13 16 10 17 11 18 14 19 20 20
ROOT
ATOM      1  C   UNL     1      47.689  35.951  25.865  1.00  0.00     0.027 C 
ENDROOT
BRANCH   1   2
ATOM      2  C   UNL     1      47.291  37.415  26.086  1.00  0.00     0.004 C 
BRANCH   2   3
ATOM      3  C   UNL     1      47.454  37.874  27.539  1.00  0.00     0.000 C 
BRANCH   3   4
ATOM      4  C   UNL     1      48.398  36.985  28.354  1.00  0.00     0.000 C 
BRANCH   4   5
ATOM      5  C   UNL     1      47.735  36.366  29.587  1.00  0.00     0.000 C 
BRANCH   5   6
ATOM      6  C   UNL     1      48.753  35.589  30.431  1.00  0.00     0.006 C 
BRANCH   6   7
ATOM      7  C   UNL     1      48.085  34.605  31.391  1.00  0.00     0.053 C 
BRANCH   7   8
ATOM      8  C   UNL     1      47.747  33.283  30.745  1.00  0.00     0.041 C 
ATOM      9  O   UNL     1      46.626  32.876  30.483  1.00  0.00    -0.550 OA
ATOM     10  O   UNL     1      48.884  32.600  30.459  1.00  0.00    -0.550 OA
ENDBRANCH   7   8
ENDBRANCH   6   7
ENDBRANCH   5   6
ENDBRANCH   4   5
ENDBRANCH   3   4
ENDBRANCH   2   3
ENDBRANCH   1   2
BRANCH   1  11
ATOM     11  C   UNL     1      46.643  35.160  25.132  1.00  0.00    -0.031 C 
ATOM     12  C   UNL     1      45.993  34.113  25.663  1.00  0.00    -0.027 C 
BRANCH  12  13
ATOM     13  C   UNL     1      46.229  33.604  27.054  1.00  0.00     0.054 C 
BRANCH  13  14
ATOM     14  C   UNL     1      46.792  32.212  27.043  1.00  0.00    -0.027 C 
ATOM     15  C   UNL     1      48.107  31.944  27.011  1.00  0.00    -0.031 C 
BRANCH  15  16
ATOM     16  C   UNL     1      49.241  32.934  26.978  1.00  0.00     0.027 C 
BRANCH  16  17
ATOM     17  C   UNL     1      49.940  33.139  25.629  1.00  0.00     0.004 C 
BRANCH  17  18
ATOM     18  C   UNL     1      49.860  31.875  24.768  1.00  0.00     0.000 C 
BRANCH  18  19
ATOM     19  C   UNL     1      51.231  31.288  24.425  1.00  0.00    -0.003 C 
ATOM     20  C   UNL     1      52.383  31.977  25.139  1.00  0.00     0.004 C 
ENDBRANCH  18  19
ENDBRANCH  17  18
ENDBRANCH  16  17
ENDBRANCH  15  16
ENDBRANCH  13  14
ENDBRANCH  12  13
ENDBRANCH   1  11
TORSDOF 14
ENDMDL
MODEL 20
REMARK VINA RESULT:    -4.898      2.428      4.271
REMARK INTER + INTRA:         -10.791
REMARK INTER:                  -8.967
REMARK INTRA:                  -1.825
REMARK UNBOUND:                -1.884
REMARK SMILES CCCCC/C=C\C/C=C\CCCCCCCC(=O)[O-]
REMARK SMILES IDX 11 1 12 2 13 3 14 4 15 5 16 6 17 7 18 8 19 9 20 10 10 11
REMARK SMILES IDX 9 12 8 13 7 14 6 15 5 16 4 17 3 18 2 19 1 20
REMARK H PARENT
REMARK INDEX MAP 8 1 6 2 4 3 3 4 5 5 7 6 9 7 18 8 2 9 1 10 12 11 15 12 16 13
REMARK INDEX MAP 19 14 17 15 13 16 10 17 11 18 14 19 20 20
ROOT
ATOM      1  C   UNL     1      48.169  32.388  28.779  1.00  0.00     0.027 C 
ENDROOT
BRANCH   1   2
ATOM      2  C   UNL     1      48.501  31.870  30.183  1.00  0.00     0.004 C 
BRANCH   2   3
ATOM      3  C   UNL     1      47.272  31.742  31.089  1.00  0.00     0.000 C 
BRANCH   3   4
ATOM      4  C   UNL     1      47.625  31.572  32.571  1.00  0.00     0.000 C 
BRANCH   4   5
ATOM      5  C   UNL     1      46.604  30.736  33.345  1.00  0.00     0.000 C 
BRANCH   5   6
ATOM      6  C   UNL     1      45.772  31.613  34.289  1.00  0.00     0.006 C 
BRANCH   6   7
ATOM      7  C   UNL     1      46.416  32.977  34.536  1.00  0.00     0.053 C 
BRANCH   7   8
ATOM      8  C   UNL     1      45.637  34.119  33.929  1.00  0.00     0.041 C 
ATOM      9  O   UNL     1      45.793  34.583  32.810  1.00  0.00    -0.550 OA
ATOM     10  O   UNL     1      44.695  34.558  34.802  1.00  0.00    -0.550 OA
ENDBRANCH   7   8
ENDBRANCH   6   7
ENDBRANCH   5   6
ENDBRANCH   4   5
ENDBRANCH   3   4
ENDBRANCH   2   3
ENDBRANCH   1   2
BRANCH   1  11
ATOM     11  C   UNL     1      46.698  32.596  28.560  1.00  0.00    -0.031 C 
ATOM     12  C   UNL     1      46.166  32.986  27.392  1.00  0.00    -0.027 C 
BRANCH  12  13
ATOM     13  C   UNL     1      46.976  33.262  26.160  1.00  0.00     0.054 C 
BRANCH  13  14
ATOM     14  C   UNL     1      46.286  34.243  25.255  1.00  0.00    -0.027 C 
ATOM     15  C   UNL     1      46.635  35.535  25.159  1.00  0.00    -0.031 C 
BRANCH  15  16
ATOM     16  C   UNL     1      47.737  36.242  25.903  1.00  0.00     0.027 C 
BRANCH  16  17
ATOM     17  C   UNL     1      47.360  37.539  26.628  1.00  0.00     0.004 C 
BRANCH  17  18
ATOM     18  C   UNL     1      47.763  37.483  28.105  1.00  0.00     0.000 C 
BRANCH  18  19
ATOM     19  C   UNL     1      48.010  36.060  28.612  1.00  0.00    -0.003 C 
ATOM     20  C   UNL     1      47.884  35.922  30.121  1.00  0.00     0.004 C 
ENDBRANCH  18  19
ENDBRANCH  17  18
ENDBRANCH  16  17
ENDBRANCH  15  16
ENDBRANCH  13  14
ENDBRANCH  12  13
ENDBRANCH   1  11
TORSDOF 14
ENDMDL
