MODEL 1
REMARK VINA RESULT:    -5.788      0.000      0.000
REMARK INTER + INTRA:         -12.259
REMARK INTER:                 -10.524
REMARK INTRA:                  -1.734
REMARK UNBOUND:                -1.734
REMARK SMILES CCCCC/C=C\C/C=C\CCCCCCCC(=O)[O-]
REMARK SMILES IDX 11 1 12 2 13 3 14 4 15 5 16 6 17 7 18 8 19 9 20 10 10 11
REMARK SMILES IDX 9 12 8 13 7 14 6 15 5 16 4 17 3 18 2 19 1 20
REMARK H PARENT
REMARK INDEX MAP 8 1 6 2 4 3 3 4 5 5 7 6 9 7 18 8 2 9 1 10 12 11 15 12 16 13
REMARK INDEX MAP 19 14 17 15 13 16 10 17 11 18 14 19 20 20
ROOT
ATOM      1  C   UNL     1      48.444  37.352  28.508  1.00  0.00     0.027 C 
ENDROOT
BRANCH   1   2
ATOM      2  C   UNL     1      47.516  36.706  29.543  1.00  0.00     0.004 C 
BRANCH   2   3
ATOM      3  C   UNL     1      47.709  35.191  29.669  1.00  0.00     0.000 C 
BRANCH   3   4
ATOM      4  C   UNL     1      48.062  34.741  31.090  1.00  0.00     0.000 C 
BRANCH   4   5
ATOM      5  C   UNL     1      47.874  35.841  32.139  1.00  0.00     0.000 C 
BRANCH   5   6
ATOM      6  C   UNL     1      46.557  35.657  32.902  1.00  0.00     0.006 C 
BRANCH   6   7
ATOM      7  C   UNL     1      45.659  36.891  32.822  1.00  0.00     0.053 C 
BRANCH   7   8
ATOM      8  C   UNL     1      44.371  36.739  33.593  1.00  0.00     0.041 C 
ATOM      9  O   UNL     1      44.041  37.381  34.578  1.00  0.00    -0.550 OA
ATOM     10  O   UNL     1      43.591  35.789  33.017  1.00  0.00    -0.550 OA
ENDBRANCH   7   8
ENDBRANCH   6   7
ENDBRANCH   5   6
ENDBRANCH   4   5
ENDBRANCH   3   4
ENDBRANCH   2   3
ENDBRANCH   1   2
BRANCH   1  11
ATOM     11  C   UNL     1      47.701  38.082  27.424  1.00  0.00    -0.031 C 
ATOM     12  C   UNL     1      47.397  37.539  26.235  1.00  0.00    -0.027 C 
BRANCH  12  13
ATOM     13  C   UNL     1      47.759  36.138  25.842  1.00  0.00     0.054 C 
BRANCH  13  14
ATOM     14  C   UNL     1      46.627  35.457  25.125  1.00  0.00    -0.027 C 
ATOM     15  C   UNL     1      46.105  34.283  25.513  1.00  0.00    -0.031 C 
BRANCH  15  16
ATOM     16  C   UNL     1      46.522  33.440  26.689  1.00  0.00     0.027 C 
BRANCH  16  17
ATOM     17  C   UNL     1      47.653  32.432  26.449  1.00  0.00     0.004 C 
BRANCH  17  18
ATOM     18  C   UNL     1      49.025  33.090  26.624  1.00  0.00     0.000 C 
BRANCH  18  19
ATOM     19  C   UNL     1      49.936  32.924  25.406  1.00  0.00    -0.003 C 
ATOM     20  C   UNL     1      49.544  31.761  24.509  1.00  0.00     0.004 C 
ENDBRANCH  18  19
ENDBRANCH  17  18
ENDBRANCH  16  17
ENDBRANCH  15  16
ENDBRANCH  13  14
ENDBRANCH  12  13
ENDBRANCH   1  11
TORSDOF 14
ENDMDL
MODEL 2
REMARK VINA RESULT:    -5.602      1.867      3.502
REMARK INTER + INTRA:         -11.921
REMARK INTER:                  -9.972
REMARK INTRA:                  -1.948
REMARK UNBOUND:                -1.734
REMARK SMILES CCCCC/C=C\C/C=C\CCCCCCCC(=O)[O-]
REMARK SMILES IDX 11 1 12 2 13 3 14 4 15 5 16 6 17 7 18 8 19 9 20 10 10 11
REMARK SMILES IDX 9 12 8 13 7 14 6 15 5 16 4 17 3 18 2 19 1 20
REMARK H PARENT
REMARK INDEX MAP 8 1 6 2 4 3 3 4 5 5 7 6 9 7 18 8 2 9 1 10 12 11 15 12 16 13
REMARK INDEX MAP 19 14 17 15 13 16 10 17 11 18 14 19 20 20
ROOT
ATOM      1  C   UNL     1      47.541  35.909  25.550  1.00  0.00     0.027 C 
ENDROOT
BRANCH   1   2
ATOM      2  C   UNL     1      47.020  37.138  26.304  1.00  0.00     0.004 C 
BRANCH   2   3
ATOM      3  C   UNL     1      48.007  37.674  27.346  1.00  0.00     0.000 C 
BRANCH   3   4
ATOM      4  C   UNL     1      47.721  37.175  28.766  1.00  0.00     0.000 C 
BRANCH   4   5
ATOM      5  C   UNL     1      48.266  35.770  29.036  1.00  0.00     0.000 C 
BRANCH   5   6
ATOM      6  C   UNL     1      48.923  35.689  30.420  1.00  0.00     0.006 C 
BRANCH   6   7
ATOM      7  C   UNL     1      48.095  34.872  31.411  1.00  0.00     0.053 C 
BRANCH   7   8
ATOM      8  C   UNL     1      48.150  35.415  32.819  1.00  0.00     0.041 C 
ATOM      9  O   UNL     1      47.583  34.946  33.794  1.00  0.00    -0.550 OA
ATOM     10  O   UNL     1      48.958  36.504  32.868  1.00  0.00    -0.550 OA
ENDBRANCH   7   8
ENDBRANCH   6   7
ENDBRANCH   5   6
ENDBRANCH   4   5
ENDBRANCH   3   4
ENDBRANCH   2   3
ENDBRANCH   1   2
BRANCH   1  11
ATOM     11  C   UNL     1      46.449  35.108  24.901  1.00  0.00    -0.031 C 
ATOM     12  C   UNL     1      45.844  34.063  25.485  1.00  0.00    -0.027 C 
BRANCH  12  13
ATOM     13  C   UNL     1      46.183  33.565  26.859  1.00  0.00     0.054 C 
BRANCH  13  14
ATOM     14  C   UNL     1      46.700  32.155  26.823  1.00  0.00    -0.027 C 
ATOM     15  C   UNL     1      48.005  31.844  26.845  1.00  0.00    -0.031 C 
BRANCH  15  16
ATOM     16  C   UNL     1      49.170  32.796  26.906  1.00  0.00     0.027 C 
BRANCH  16  17
ATOM     17  C   UNL     1      49.836  33.159  25.573  1.00  0.00     0.004 C 
BRANCH  17  18
ATOM     18  C   UNL     1      49.960  31.931  24.665  1.00  0.00     0.000 C 
BRANCH  18  19
ATOM     19  C   UNL     1      51.391  31.400  24.557  1.00  0.00    -0.003 C 
ATOM     20  C   UNL     1      52.414  32.260  25.282  1.00  0.00     0.004 C 
ENDBRANCH  18  19
ENDBRANCH  17  18
ENDBRANCH  16  17
ENDBRANCH  15  16
ENDBRANCH  13  14
ENDBRANCH  12  13
ENDBRANCH   1  11
TORSDOF 14
ENDMDL
MODEL 3
REMARK VINA RESULT:    -5.508      1.422      3.453
REMARK INTER + INTRA:         -11.750
REMARK INTER:                  -9.712
REMARK INTRA:                  -2.038
REMARK UNBOUND:                -1.734
REMARK SMILES CCCCC/C=C\C/C=C\CCCCCCCC(=O)[O-]
REMARK SMILES IDX 11 1 12 2 13 3 14 4 15 5 16 6 17 7 18 8 19 9 20 10 10 11
REMARK SMILES IDX 9 12 8 13 7 14 6 15 5 16 4 17 3 18 2 19 1 20
REMARK H PARENT
REMARK INDEX MAP 8 1 6 2 4 3 3 4 5 5 7 6 9 7 18 8 2 9 1 10 12 11 15 12 16 13
REMARK INDEX MAP 19 14 17 15 13 16 10 17 11 18 14 19 20 20
ROOT
ATOM      1  C   UNL     1      48.397  33.668  31.016  1.00  0.00     0.027 C 
ENDROOT
BRANCH   1   2
ATOM      2  C   UNL     1      48.673  33.207  32.452  1.00  0.00     0.004 C 
BRANCH   2   3
ATOM      3  C   UNL     1      48.260  34.237  33.509  1.00  0.00     0.000 C 
BRANCH   3   4
ATOM      4  C   UNL     1      46.876  34.846  33.254  1.00  0.00     0.000 C 
BRANCH   4   5
ATOM      5  C   UNL     1      46.920  36.345  32.950  1.00  0.00     0.000 C 
BRANCH   5   6
ATOM      6  C   UNL     1      45.507  36.939  32.889  1.00  0.00     0.006 C 
BRANCH   6   7
ATOM      7  C   UNL     1      44.439  35.949  33.350  1.00  0.00     0.053 C 
BRANCH   7   8
ATOM      8  C   UNL     1      43.284  36.612  34.062  1.00  0.00     0.041 C 
ATOM      9  O   UNL     1      42.098  36.383  33.878  1.00  0.00    -0.550 OA
ATOM     10  O   UNL     1      43.747  37.498  34.979  1.00  0.00    -0.550 OA
ENDBRANCH   7   8
ENDBRANCH   6   7
ENDBRANCH   5   6
ENDBRANCH   4   5
ENDBRANCH   3   4
ENDBRANCH   2   3
ENDBRANCH   1   2
BRANCH   1  11
ATOM     11  C   UNL     1      49.429  34.627  30.496  1.00  0.00    -0.031 C 
ATOM     12  C   UNL     1      49.132  35.735  29.800  1.00  0.00    -0.027 C 
BRANCH  12  13
ATOM     13  C   UNL     1      47.733  36.154  29.458  1.00  0.00     0.054 C 
BRANCH  13  14
ATOM     14  C   UNL     1      47.720  37.409  28.632  1.00  0.00    -0.027 C 
ATOM     15  C   UNL     1      47.863  37.420  27.298  1.00  0.00    -0.031 C 
BRANCH  15  16
ATOM     16  C   UNL     1      48.059  36.235  26.390  1.00  0.00     0.027 C 
BRANCH  16  17
ATOM     17  C   UNL     1      46.875  35.847  25.496  1.00  0.00     0.004 C 
BRANCH  17  18
ATOM     18  C   UNL     1      46.736  34.325  25.395  1.00  0.00     0.000 C 
BRANCH  18  19
ATOM     19  C   UNL     1      47.261  33.585  26.627  1.00  0.00    -0.003 C 
ATOM     20  C   UNL     1      46.172  33.212  27.621  1.00  0.00     0.004 C 
ENDBRANCH  18  19
ENDBRANCH  17  18
ENDBRANCH  16  17
ENDBRANCH  15  16
ENDBRANCH  13  14
ENDBRANCH  12  13
ENDBRANCH   1  11
TORSDOF 14
ENDMDL
MODEL 4
REMARK VINA RESULT:    -5.419      1.595      3.548
REMARK INTER + INTRA:         -11.588
REMARK INTER:                  -9.130
REMARK INTRA:                  -2.458
REMARK UNBOUND:                -1.734
REMARK SMILES CCCCC/C=C\C/C=C\CCCCCCCC(=O)[O-]
REMARK SMILES IDX 11 1 12 2 13 3 14 4 15 5 16 6 17 7 18 8 19 9 20 10 10 11
REMARK SMILES IDX 9 12 8 13 7 14 6 15 5 16 4 17 3 18 2 19 1 20
REMARK H PARENT
REMARK INDEX MAP 8 1 6 2 4 3 3 4 5 5 7 6 9 7 18 8 2 9 1 10 12 11 15 12 16 13
REMARK INDEX MAP 19 14 17 15 13 16 10 17 11 18 14 19 20 20
ROOT
ATOM      1  C   UNL     1      46.565  35.674  25.430  1.00  0.00     0.027 C 
ENDROOT
BRANCH   1   2
ATOM      2  C   UNL     1      47.908  36.256  25.885  1.00  0.00     0.004 C 
BRANCH   2   3
ATOM      3  C   UNL     1      47.774  37.608  26.595  1.00  0.00     0.000 C 
BRANCH   3   4
ATOM      4  C   UNL     1      48.234  37.573  28.057  1.00  0.00     0.000 C 
BRANCH   4   5
ATOM      5  C   UNL     1      47.727  36.350  28.824  1.00  0.00     0.000 C 
BRANCH   5   6
ATOM      6  C   UNL     1      48.699  35.956  29.942  1.00  0.00     0.006 C 
BRANCH   6   7
ATOM      7  C   UNL     1      48.047  35.060  30.994  1.00  0.00     0.053 C 
BRANCH   7   8
ATOM      8  C   UNL     1      47.647  35.807  32.244  1.00  0.00     0.041 C 
ATOM      9  O   UNL     1      48.371  36.524  32.917  1.00  0.00    -0.550 OA
ATOM     10  O   UNL     1      46.333  35.596  32.514  1.00  0.00    -0.550 OA
ENDBRANCH   7   8
ENDBRANCH   6   7
ENDBRANCH   5   6
ENDBRANCH   4   5
ENDBRANCH   3   4
ENDBRANCH   2   3
ENDBRANCH   1   2
BRANCH   1  11
ATOM     11  C   UNL     1      46.651  34.225  25.042  1.00  0.00    -0.031 C 
ATOM     12  C   UNL     1      46.445  33.212  25.898  1.00  0.00    -0.027 C 
BRANCH  12  13
ATOM     13  C   UNL     1      46.101  33.401  27.346  1.00  0.00     0.054 C 
BRANCH  13  14
ATOM     14  C   UNL     1      46.447  32.186  28.157  1.00  0.00    -0.027 C 
ATOM     15  C   UNL     1      47.695  31.892  28.557  1.00  0.00    -0.031 C 
BRANCH  15  16
ATOM     16  C   UNL     1      48.949  32.678  28.287  1.00  0.00     0.027 C 
BRANCH  16  17
ATOM     17  C   UNL     1      49.922  32.094  27.255  1.00  0.00     0.004 C 
BRANCH  17  18
ATOM     18  C   UNL     1      50.045  33.010  26.033  1.00  0.00     0.000 C 
BRANCH  18  19
ATOM     19  C   UNL     1      50.411  32.261  24.750  1.00  0.00    -0.003 C 
ATOM     20  C   UNL     1      49.402  31.192  24.362  1.00  0.00     0.004 C 
ENDBRANCH  18  19
ENDBRANCH  17  18
ENDBRANCH  16  17
ENDBRANCH  15  16
ENDBRANCH  13  14
ENDBRANCH  12  13
ENDBRANCH   1  11
TORSDOF 14
ENDMDL
MODEL 5
REMARK VINA RESULT:    -5.410      2.065      2.549
REMARK INTER + INTRA:         -11.573
REMARK INTER:                  -9.507
REMARK INTRA:                  -2.066
REMARK UNBOUND:                -1.734
REMARK SMILES CCCCC/C=C\C/C=C\CCCCCCCC(=O)[O-]
REMARK SMILES IDX 11 1 12 2 13 3 14 4 15 5 16 6 17 7 18 8 19 9 20 10 10 11
REMARK SMILES IDX 9 12 8 13 7 14 6 15 5 16 4 17 3 18 2 19 1 20
REMARK H PARENT
REMARK INDEX MAP 8 1 6 2 4 3 3 4 5 5 7 6 9 7 18 8 2 9 1 10 12 11 15 12 16 13
REMARK INDEX MAP 19 14 17 15 13 16 10 17 11 18 14 19 20 20
ROOT
ATOM      1  C   UNL     1      48.417  37.626  28.227  1.00  0.00     0.027 C 
ENDROOT
BRANCH   1   2
ATOM      2  C   UNL     1      47.415  37.091  29.256  1.00  0.00     0.004 C 
BRANCH   2   3
ATOM      3  C   UNL     1      47.990  35.980  30.142  1.00  0.00     0.000 C 
BRANCH   3   4
ATOM      4  C   UNL     1      48.622  34.834  29.344  1.00  0.00     0.000 C 
BRANCH   4   5
ATOM      5  C   UNL     1      48.824  33.560  30.168  1.00  0.00     0.000 C 
BRANCH   5   6
ATOM      6  C   UNL     1      47.791  33.462  31.297  1.00  0.00     0.006 C 
BRANCH   6   7
ATOM      7  C   UNL     1      48.433  33.167  32.651  1.00  0.00     0.053 C 
BRANCH   7   8
ATOM      8  C   UNL     1      48.271  34.294  33.643  1.00  0.00     0.041 C 
ATOM      9  O   UNL     1      47.607  35.305  33.481  1.00  0.00    -0.550 OA
ATOM     10  O   UNL     1      48.955  34.015  34.782  1.00  0.00    -0.550 OA
ENDBRANCH   7   8
ENDBRANCH   6   7
ENDBRANCH   5   6
ENDBRANCH   4   5
ENDBRANCH   3   4
ENDBRANCH   2   3
ENDBRANCH   1   2
BRANCH   1  11
ATOM     11  C   UNL     1      47.761  38.132  26.974  1.00  0.00    -0.031 C 
ATOM     12  C   UNL     1      47.420  37.345  25.942  1.00  0.00    -0.027 C 
BRANCH  12  13
ATOM     13  C   UNL     1      47.650  35.863  25.913  1.00  0.00     0.054 C 
BRANCH  13  14
ATOM     14  C   UNL     1      46.550  35.149  25.180  1.00  0.00    -0.027 C 
ATOM     15  C   UNL     1      46.007  33.995  25.600  1.00  0.00    -0.031 C 
BRANCH  15  16
ATOM     16  C   UNL     1      46.370  33.210  26.832  1.00  0.00     0.027 C 
BRANCH  16  17
ATOM     17  C   UNL     1      47.662  32.386  26.770  1.00  0.00     0.004 C 
BRANCH  17  18
ATOM     18  C   UNL     1      47.828  31.721  25.400  1.00  0.00     0.000 C 
BRANCH  18  19
ATOM     19  C   UNL     1      49.189  31.993  24.756  1.00  0.00    -0.003 C 
ATOM     20  C   UNL     1      49.992  33.073  25.465  1.00  0.00     0.004 C 
ENDBRANCH  18  19
ENDBRANCH  17  18
ENDBRANCH  16  17
ENDBRANCH  15  16
ENDBRANCH  13  14
ENDBRANCH  12  13
ENDBRANCH   1  11
TORSDOF 14
ENDMDL
MODEL 6
REMARK VINA RESULT:    -5.385      1.781      2.263
REMARK INTER + INTRA:         -11.527
REMARK INTER:                 -10.137
REMARK INTRA:                  -1.390
REMARK UNBOUND:                -1.734
REMARK SMILES CCCCC/C=C\C/C=C\CCCCCCCC(=O)[O-]
REMARK SMILES IDX 11 1 12 2 13 3 14 4 15 5 16 6 17 7 18 8 19 9 20 10 10 11
REMARK SMILES IDX 9 12 8 13 7 14 6 15 5 16 4 17 3 18 2 19 1 20
REMARK H PARENT
REMARK INDEX MAP 8 1 6 2 4 3 3 4 5 5 7 6 9 7 18 8 2 9 1 10 12 11 15 12 16 13
REMARK INDEX MAP 19 14 17 15 13 16 10 17 11 18 14 19 20 20
ROOT
ATOM      1  C   UNL     1      48.045  35.653  29.264  1.00  0.00     0.027 C 
ENDROOT
BRANCH   1   2
ATOM      2  C   UNL     1      48.977  35.714  30.479  1.00  0.00     0.004 C 
BRANCH   2   3
ATOM      3  C   UNL     1      48.278  35.369  31.799  1.00  0.00     0.000 C 
BRANCH   3   4
ATOM      4  C   UNL     1      48.929  34.198  32.542  1.00  0.00     0.000 C 
BRANCH   4   5
ATOM      5  C   UNL     1      48.393  34.008  33.963  1.00  0.00     0.000 C 
BRANCH   5   6
ATOM      6  C   UNL     1      47.697  32.651  34.115  1.00  0.00     0.006 C 
BRANCH   6   7
ATOM      7  C   UNL     1      46.341  32.765  34.811  1.00  0.00     0.053 C 
BRANCH   7   8
ATOM      8  C   UNL     1      45.333  33.562  34.020  1.00  0.00     0.041 C 
ATOM      9  O   UNL     1      44.974  33.335  32.875  1.00  0.00    -0.550 OA
ATOM     10  O   UNL     1      44.840  34.575  34.778  1.00  0.00    -0.550 OA
ENDBRANCH   7   8
ENDBRANCH   6   7
ENDBRANCH   5   6
ENDBRANCH   4   5
ENDBRANCH   3   4
ENDBRANCH   2   3
ENDBRANCH   1   2
BRANCH   1  11
ATOM     11  C   UNL     1      47.551  37.004  28.831  1.00  0.00    -0.031 C 
ATOM     12  C   UNL     1      47.562  37.428  27.559  1.00  0.00    -0.027 C 
BRANCH  12  13
ATOM     13  C   UNL     1      48.066  36.605  26.410  1.00  0.00     0.054 C 
BRANCH  13  14
ATOM     14  C   UNL     1      46.944  36.165  25.514  1.00  0.00    -0.027 C 
ATOM     15  C   UNL     1      46.448  34.917  25.506  1.00  0.00    -0.031 C 
BRANCH  15  16
ATOM     16  C   UNL     1      46.890  33.753  26.351  1.00  0.00     0.027 C 
BRANCH  16  17
ATOM     17  C   UNL     1      47.950  32.824  25.746  1.00  0.00     0.004 C 
BRANCH  17  18
ATOM     18  C   UNL     1      49.364  33.315  26.071  1.00  0.00     0.000 C 
BRANCH  18  19
ATOM     19  C   UNL     1      50.440  32.700  25.174  1.00  0.00    -0.003 C 
ATOM     20  C   UNL     1      49.966  31.472  24.411  1.00  0.00     0.004 C 
ENDBRANCH  18  19
ENDBRANCH  17  18
ENDBRANCH  16  17
ENDBRANCH  15  16
ENDBRANCH  13  14
ENDBRANCH  12  13
ENDBRANCH   1  11
TORSDOF 14
ENDMDL
MODEL 7
REMARK VINA RESULT:    -5.345      2.259      3.474
REMARK INTER + INTRA:         -11.454
REMARK INTER:                  -9.482
REMARK INTRA:                  -1.972
REMARK UNBOUND:                -1.734
REMARK SMILES CCCCC/C=C\C/C=C\CCCCCCCC(=O)[O-]
REMARK SMILES IDX 11 1 12 2 13 3 14 4 15 5 16 6 17 7 18 8 19 9 20 10 10 11
REMARK SMILES IDX 9 12 8 13 7 14 6 15 5 16 4 17 3 18 2 19 1 20
REMARK H PARENT
REMARK INDEX MAP 8 1 6 2 4 3 3 4 5 5 7 6 9 7 18 8 2 9 1 10 12 11 15 12 16 13
REMARK INDEX MAP 19 14 17 15 13 16 10 17 11 18 14 19 20 20
ROOT
ATOM      1  C   UNL     1      49.263  35.428  30.130  1.00  0.00     0.027 C 
ENDROOT
BRANCH   1   2
ATOM      2  C   UNL     1      49.310  33.977  30.625  1.00  0.00     0.004 C 
BRANCH   2   3
ATOM      3  C   UNL     1      48.115  33.598  31.505  1.00  0.00     0.000 C 
BRANCH   3   4
ATOM      4  C   UNL     1      48.079  32.110  31.870  1.00  0.00     0.000 C 
BRANCH   4   5
ATOM      5  C   UNL     1      46.661  31.565  32.058  1.00  0.00     0.000 C 
BRANCH   5   6
ATOM      6  C   UNL     1      46.340  31.358  33.543  1.00  0.00     0.006 C 
BRANCH   6   7
ATOM      7  C   UNL     1      45.119  32.160  33.992  1.00  0.00     0.053 C 
BRANCH   7   8
ATOM      8  C   UNL     1      45.478  33.490  34.611  1.00  0.00     0.041 C 
ATOM      9  O   UNL     1      44.745  34.462  34.703  1.00  0.00    -0.550 OA
ATOM     10  O   UNL     1      46.746  33.453  35.093  1.00  0.00    -0.550 OA
ENDBRANCH   7   8
ENDBRANCH   6   7
ENDBRANCH   5   6
ENDBRANCH   4   5
ENDBRANCH   3   4
ENDBRANCH   2   3
ENDBRANCH   1   2
BRANCH   1  11
ATOM     11  C   UNL     1      47.870  35.990  30.085  1.00  0.00    -0.031 C 
ATOM     12  C   UNL     1      47.475  36.933  29.216  1.00  0.00    -0.027 C 
BRANCH  12  13
ATOM     13  C   UNL     1      48.375  37.541  28.181  1.00  0.00     0.054 C 
BRANCH  13  14
ATOM     14  C   UNL     1      47.608  37.946  26.954  1.00  0.00    -0.027 C 
ATOM     15  C   UNL     1      47.271  37.092  25.975  1.00  0.00    -0.031 C 
BRANCH  15  16
ATOM     16  C   UNL     1      47.577  35.620  25.901  1.00  0.00     0.027 C 
BRANCH  16  17
ATOM     17  C   UNL     1      46.539  34.733  25.204  1.00  0.00     0.004 C 
BRANCH  17  18
ATOM     18  C   UNL     1      46.107  33.574  26.108  1.00  0.00     0.000 C 
BRANCH  18  19
ATOM     19  C   UNL     1      46.730  33.631  27.504  1.00  0.00    -0.003 C 
ATOM     20  C   UNL     1      47.301  32.300  27.969  1.00  0.00     0.004 C 
ENDBRANCH  18  19
ENDBRANCH  17  18
ENDBRANCH  16  17
ENDBRANCH  15  16
ENDBRANCH  13  14
ENDBRANCH  12  13
ENDBRANCH   1  11
TORSDOF 14
ENDMDL
MODEL 8
REMARK VINA RESULT:    -5.315      1.289      2.245
REMARK INTER + INTRA:         -11.399
REMARK INTER:                  -9.617
REMARK INTRA:                  -1.782
REMARK UNBOUND:                -1.734
REMARK SMILES CCCCC/C=C\C/C=C\CCCCCCCC(=O)[O-]
REMARK SMILES IDX 11 1 12 2 13 3 14 4 15 5 16 6 17 7 18 8 19 9 20 10 10 11
REMARK SMILES IDX 9 12 8 13 7 14 6 15 5 16 4 17 3 18 2 19 1 20
REMARK H PARENT
REMARK INDEX MAP 8 1 6 2 4 3 3 4 5 5 7 6 9 7 18 8 2 9 1 10 12 11 15 12 16 13
REMARK INDEX MAP 19 14 17 15 13 16 10 17 11 18 14 19 20 20
ROOT
ATOM      1  C   UNL     1      47.694  36.094  29.209  1.00  0.00     0.027 C 
ENDROOT
BRANCH   1   2
ATOM      2  C   UNL     1      49.041  35.663  29.801  1.00  0.00     0.004 C 
BRANCH   2   3
ATOM      3  C   UNL     1      49.018  35.531  31.328  1.00  0.00     0.000 C 
BRANCH   3   4
ATOM      4  C   UNL     1      47.637  35.792  31.938  1.00  0.00     0.000 C 
BRANCH   4   5
ATOM      5  C   UNL     1      47.049  34.573  32.653  1.00  0.00     0.000 C 
BRANCH   5   6
ATOM      6  C   UNL     1      45.798  34.952  33.455  1.00  0.00     0.006 C 
BRANCH   6   7
ATOM      7  C   UNL     1      45.285  36.349  33.110  1.00  0.00     0.053 C 
BRANCH   7   8
ATOM      8  C   UNL     1      43.918  36.637  33.682  1.00  0.00     0.041 C 
ATOM      9  O   UNL     1      42.857  36.191  33.273  1.00  0.00    -0.550 OA
ATOM     10  O   UNL     1      44.026  37.456  34.760  1.00  0.00    -0.550 OA
ENDBRANCH   7   8
ENDBRANCH   6   7
ENDBRANCH   5   6
ENDBRANCH   4   5
ENDBRANCH   3   4
ENDBRANCH   2   3
ENDBRANCH   1   2
BRANCH   1  11
ATOM     11  C   UNL     1      47.733  37.463  28.591  1.00  0.00    -0.031 C 
ATOM     12  C   UNL     1      47.939  37.684  27.284  1.00  0.00    -0.027 C 
BRANCH  12  13
ATOM     13  C   UNL     1      48.155  36.592  26.278  1.00  0.00     0.054 C 
BRANCH  13  14
ATOM     14  C   UNL     1      46.878  36.234  25.571  1.00  0.00    -0.027 C 
ATOM     15  C   UNL     1      46.558  34.981  25.209  1.00  0.00    -0.031 C 
BRANCH  15  16
ATOM     16  C   UNL     1      47.372  33.733  25.421  1.00  0.00     0.027 C 
BRANCH  16  17
ATOM     17  C   UNL     1      46.680  32.572  26.147  1.00  0.00     0.004 C 
BRANCH  17  18
ATOM     18  C   UNL     1      46.138  33.018  27.508  1.00  0.00     0.000 C 
BRANCH  18  19
ATOM     19  C   UNL     1      47.086  32.710  28.669  1.00  0.00    -0.003 C 
ATOM     20  C   UNL     1      46.502  31.747  29.691  1.00  0.00     0.004 C 
ENDBRANCH  18  19
ENDBRANCH  17  18
ENDBRANCH  16  17
ENDBRANCH  15  16
ENDBRANCH  13  14
ENDBRANCH  12  13
ENDBRANCH   1  11
TORSDOF 14
ENDMDL
MODEL 9
REMARK VINA RESULT:    -5.307      1.901      2.315
REMARK INTER + INTRA:         -11.384
REMARK INTER:                  -9.411
REMARK INTRA:                  -1.974
REMARK UNBOUND:                -1.734
REMARK SMILES CCCCC/C=C\C/C=C\CCCCCCCC(=O)[O-]
REMARK SMILES IDX 11 1 12 2 13 3 14 4 15 5 16 6 17 7 18 8 19 9 20 10 10 11
REMARK SMILES IDX 9 12 8 13 7 14 6 15 5 16 4 17 3 18 2 19 1 20
REMARK H PARENT
REMARK INDEX MAP 8 1 6 2 4 3 3 4 5 5 7 6 9 7 18 8 2 9 1 10 12 11 15 12 16 13
REMARK INDEX MAP 19 14 17 15 13 16 10 17 11 18 14 19 20 20
ROOT
ATOM      1  C   UNL     1      48.366  37.190  28.471  1.00  0.00     0.027 C 
ENDROOT
BRANCH   1   2
ATOM      2  C   UNL     1      47.129  37.020  29.361  1.00  0.00     0.004 C 
BRANCH   2   3
ATOM      3  C   UNL     1      47.459  36.507  30.766  1.00  0.00     0.000 C 
BRANCH   3   4
ATOM      4  C   UNL     1      48.776  35.726  30.833  1.00  0.00     0.000 C 
BRANCH   4   5
ATOM      5  C   UNL     1      48.911  34.870  32.095  1.00  0.00     0.000 C 
BRANCH   5   6
ATOM      6  C   UNL     1      47.683  35.025  33.001  1.00  0.00     0.006 C 
BRANCH   6   7
ATOM      7  C   UNL     1      47.137  33.680  33.478  1.00  0.00     0.053 C 
BRANCH   7   8
ATOM      8  C   UNL     1      45.671  33.728  33.835  1.00  0.00     0.041 C 
ATOM      9  O   UNL     1      45.198  34.148  34.880  1.00  0.00    -0.550 OA
ATOM     10  O   UNL     1      44.924  33.258  32.804  1.00  0.00    -0.550 OA
ENDBRANCH   7   8
ENDBRANCH   6   7
ENDBRANCH   5   6
ENDBRANCH   4   5
ENDBRANCH   3   4
ENDBRANCH   2   3
ENDBRANCH   1   2
BRANCH   1  11
ATOM     11  C   UNL     1      48.087  37.962  27.213  1.00  0.00    -0.031 C 
ATOM     12  C   UNL     1      47.861  37.388  26.021  1.00  0.00    -0.027 C 
BRANCH  12  13
ATOM     13  C   UNL     1      47.859  35.905  25.798  1.00  0.00     0.054 C 
BRANCH  13  14
ATOM     14  C   UNL     1      46.539  35.431  25.259  1.00  0.00    -0.027 C 
ATOM     15  C   UNL     1      46.216  34.135  25.127  1.00  0.00    -0.031 C 
BRANCH  15  16
ATOM     16  C   UNL     1      47.065  32.941  25.472  1.00  0.00     0.027 C 
BRANCH  16  17
ATOM     17  C   UNL     1      46.525  31.998  26.554  1.00  0.00     0.004 C 
BRANCH  17  18
ATOM     18  C   UNL     1      46.093  32.777  27.799  1.00  0.00     0.000 C 
BRANCH  18  19
ATOM     19  C   UNL     1      47.263  33.406  28.557  1.00  0.00    -0.003 C 
ATOM     20  C   UNL     1      48.256  32.388  29.097  1.00  0.00     0.004 C 
ENDBRANCH  18  19
ENDBRANCH  17  18
ENDBRANCH  16  17
ENDBRANCH  15  16
ENDBRANCH  13  14
ENDBRANCH  12  13
ENDBRANCH   1  11
TORSDOF 14
ENDMDL
MODEL 10
REMARK VINA RESULT:    -5.281      3.145      7.034
REMARK INTER + INTRA:         -11.337
REMARK INTER:                  -9.510
REMARK INTRA:                  -1.827
REMARK UNBOUND:                -1.734
REMARK SMILES CCCCC/C=C\C/C=C\CCCCCCCC(=O)[O-]
REMARK SMILES IDX 11 1 12 2 13 3 14 4 15 5 16 6 17 7 18 8 19 9 20 10 10 11
REMARK SMILES IDX 9 12 8 13 7 14 6 15 5 16 4 17 3 18 2 19 1 20
REMARK H PARENT
REMARK INDEX MAP 8 1 6 2 4 3 3 4 5 5 7 6 9 7 18 8 2 9 1 10 12 11 15 12 16 13
REMARK INDEX MAP 19 14 17 15 13 16 10 17 11 18 14 19 20 20
ROOT
ATOM      1  C   UNL     1      47.710  36.030  30.276  1.00  0.00     0.027 C 
ENDROOT
BRANCH   1   2
ATOM      2  C   UNL     1      47.347  37.139  29.282  1.00  0.00     0.004 C 
BRANCH   2   3
ATOM      3  C   UNL     1      48.464  37.444  28.279  1.00  0.00     0.000 C 
BRANCH   3   4
ATOM      4  C   UNL     1      47.955  38.076  26.979  1.00  0.00     0.000 C 
BRANCH   4   5
ATOM      5  C   UNL     1      47.997  37.121  25.783  1.00  0.00     0.000 C 
BRANCH   5   6
ATOM      6  C   UNL     1      46.860  36.094  25.855  1.00  0.00     0.006 C 
BRANCH   6   7
ATOM      7  C   UNL     1      47.369  34.655  25.796  1.00  0.00     0.053 C 
BRANCH   7   8
ATOM      8  C   UNL     1      47.461  34.002  27.154  1.00  0.00     0.041 C 
ATOM      9  O   UNL     1      46.529  33.783  27.912  1.00  0.00    -0.550 OA
ATOM     10  O   UNL     1      48.746  33.653  27.419  1.00  0.00    -0.550 OA
ENDBRANCH   7   8
ENDBRANCH   6   7
ENDBRANCH   5   6
ENDBRANCH   4   5
ENDBRANCH   3   4
ENDBRANCH   2   3
ENDBRANCH   1   2
BRANCH   1  11
ATOM     11  C   UNL     1      49.173  35.686  30.267  1.00  0.00    -0.031 C 
ATOM     12  C   UNL     1      49.909  35.535  31.378  1.00  0.00    -0.027 C 
BRANCH  12  13
ATOM     13  C   UNL     1      49.364  35.690  32.767  1.00  0.00     0.054 C 
BRANCH  13  14
ATOM     14  C   UNL     1      49.134  34.357  33.420  1.00  0.00    -0.027 C 
ATOM     15  C   UNL     1      47.914  33.860  33.681  1.00  0.00    -0.031 C 
BRANCH  15  16
ATOM     16  C   UNL     1      46.585  34.503  33.390  1.00  0.00     0.027 C 
BRANCH  16  17
ATOM     17  C   UNL     1      45.357  33.894  34.080  1.00  0.00     0.004 C 
BRANCH  17  18
ATOM     18  C   UNL     1      45.609  32.434  34.465  1.00  0.00     0.000 C 
BRANCH  18  19
ATOM     19  C   UNL     1      45.146  31.437  33.400  1.00  0.00    -0.003 C 
ATOM     20  C   UNL     1      46.089  30.257  33.221  1.00  0.00     0.004 C 
ENDBRANCH  18  19
ENDBRANCH  17  18
ENDBRANCH  16  17
ENDBRANCH  15  16
ENDBRANCH  13  14
ENDBRANCH  12  13
ENDBRANCH   1  11
TORSDOF 14
ENDMDL
MODEL 11
REMARK VINA RESULT:    -5.279      1.860      3.024
REMARK INTER + INTRA:         -11.334
REMARK INTER:                  -9.524
REMARK INTRA:                  -1.810
REMARK UNBOUND:                -1.734
REMARK SMILES CCCCC/C=C\C/C=C\CCCCCCCC(=O)[O-]
REMARK SMILES IDX 11 1 12 2 13 3 14 4 15 5 16 6 17 7 18 8 19 9 20 10 10 11
REMARK SMILES IDX 9 12 8 13 7 14 6 15 5 16 4 17 3 18 2 19 1 20
REMARK H PARENT
REMARK INDEX MAP 8 1 6 2 4 3 3 4 5 5 7 6 9 7 18 8 2 9 1 10 12 11 15 12 16 13
REMARK INDEX MAP 19 14 17 15 13 16 10 17 11 18 14 19 20 20
ROOT
ATOM      1  C   UNL     1      49.142  35.372  30.092  1.00  0.00     0.027 C 
ENDROOT
BRANCH   1   2
ATOM      2  C   UNL     1      50.053  35.797  31.249  1.00  0.00     0.004 C 
BRANCH   2   3
ATOM      3  C   UNL     1      50.192  34.725  32.335  1.00  0.00     0.000 C 
BRANCH   3   4
ATOM      4  C   UNL     1      49.030  34.719  33.335  1.00  0.00     0.000 C 
BRANCH   4   5
ATOM      5  C   UNL     1      48.822  33.364  34.016  1.00  0.00     0.000 C 
BRANCH   5   6
ATOM      6  C   UNL     1      47.390  32.855  33.809  1.00  0.00     0.006 C 
BRANCH   6   7
ATOM      7  C   UNL     1      46.547  33.813  32.968  1.00  0.00     0.053 C 
BRANCH   7   8
ATOM      8  C   UNL     1      45.321  34.315  33.691  1.00  0.00     0.041 C 
ATOM      9  O   UNL     1      44.421  34.983  33.204  1.00  0.00    -0.550 OA
ATOM     10  O   UNL     1      45.332  33.890  34.980  1.00  0.00    -0.550 OA
ENDBRANCH   7   8
ENDBRANCH   6   7
ENDBRANCH   5   6
ENDBRANCH   4   5
ENDBRANCH   3   4
ENDBRANCH   2   3
ENDBRANCH   1   2
BRANCH   1  11
ATOM     11  C   UNL     1      47.825  36.095  30.082  1.00  0.00    -0.031 C 
ATOM     12  C   UNL     1      47.510  37.056  29.200  1.00  0.00    -0.027 C 
BRANCH  12  13
ATOM     13  C   UNL     1      48.432  37.527  28.115  1.00  0.00     0.054 C 
BRANCH  13  14
ATOM     14  C   UNL     1      47.686  37.812  26.843  1.00  0.00    -0.027 C 
ATOM     15  C   UNL     1      47.442  36.885  25.904  1.00  0.00    -0.031 C 
BRANCH  15  16
ATOM     16  C   UNL     1      47.844  35.435  25.924  1.00  0.00     0.027 C 
BRANCH  16  17
ATOM     17  C   UNL     1      46.714  34.405  26.040  1.00  0.00     0.004 C 
BRANCH  17  18
ATOM     18  C   UNL     1      46.710  33.744  27.421  1.00  0.00     0.000 C 
BRANCH  18  19
ATOM     19  C   UNL     1      46.379  32.250  27.377  1.00  0.00    -0.003 C 
ATOM     20  C   UNL     1      46.698  31.597  26.041  1.00  0.00     0.004 C 
ENDBRANCH  18  19
ENDBRANCH  17  18
ENDBRANCH  16  17
ENDBRANCH  15  16
ENDBRANCH  13  14
ENDBRANCH  12  13
ENDBRANCH   1  11
TORSDOF 14
ENDMDL
MODEL 12
REMARK VINA RESULT:    -5.251      1.491      1.761
REMARK INTER + INTRA:         -11.283
REMARK INTER:                  -9.421
REMARK INTRA:                  -1.861
REMARK UNBOUND:                -1.734
REMARK SMILES CCCCC/C=C\C/C=C\CCCCCCCC(=O)[O-]
REMARK SMILES IDX 11 1 12 2 13 3 14 4 15 5 16 6 17 7 18 8 19 9 20 10 10 11
REMARK SMILES IDX 9 12 8 13 7 14 6 15 5 16 4 17 3 18 2 19 1 20
REMARK H PARENT
REMARK INDEX MAP 8 1 6 2 4 3 3 4 5 5 7 6 9 7 18 8 2 9 1 10 12 11 15 12 16 13
REMARK INDEX MAP 19 14 17 15 13 16 10 17 11 18 14 19 20 20
ROOT
ATOM      1  C   UNL     1      48.474  37.480  28.246  1.00  0.00     0.027 C 
ENDROOT
BRANCH   1   2
ATOM      2  C   UNL     1      47.564  36.874  29.321  1.00  0.00     0.004 C 
BRANCH   2   3
ATOM      3  C   UNL     1      48.257  35.801  30.167  1.00  0.00     0.000 C 
BRANCH   3   4
ATOM      4  C   UNL     1      47.693  34.394  29.942  1.00  0.00     0.000 C 
BRANCH   4   5
ATOM      5  C   UNL     1      48.180  33.373  30.973  1.00  0.00     0.000 C 
BRANCH   5   6
ATOM      6  C   UNL     1      47.967  33.886  32.403  1.00  0.00     0.006 C 
BRANCH   6   7
ATOM      7  C   UNL     1      46.695  33.326  33.039  1.00  0.00     0.053 C 
BRANCH   7   8
ATOM      8  C   UNL     1      45.869  34.379  33.738  1.00  0.00     0.041 C 
ATOM      9  O   UNL     1      45.025  34.178  34.598  1.00  0.00    -0.550 OA
ATOM     10  O   UNL     1      46.216  35.615  33.296  1.00  0.00    -0.550 OA
ENDBRANCH   7   8
ENDBRANCH   6   7
ENDBRANCH   5   6
ENDBRANCH   4   5
ENDBRANCH   3   4
ENDBRANCH   2   3
ENDBRANCH   1   2
BRANCH   1  11
ATOM     11  C   UNL     1      47.714  38.050  27.082  1.00  0.00    -0.031 C 
ATOM     12  C   UNL     1      47.345  37.333  26.011  1.00  0.00    -0.027 C 
BRANCH  12  13
ATOM     13  C   UNL     1      47.644  35.873  25.842  1.00  0.00     0.054 C 
BRANCH  13  14
ATOM     14  C   UNL     1      46.557  35.172  25.078  1.00  0.00    -0.027 C 
ATOM     15  C   UNL     1      45.949  34.055  25.509  1.00  0.00    -0.031 C 
BRANCH  15  16
ATOM     16  C   UNL     1      46.217  33.304  26.786  1.00  0.00     0.027 C 
BRANCH  16  17
ATOM     17  C   UNL     1      46.975  31.977  26.661  1.00  0.00     0.004 C 
BRANCH  17  18
ATOM     18  C   UNL     1      48.489  32.198  26.720  1.00  0.00     0.000 C 
BRANCH  18  19
ATOM     19  C   UNL     1      49.147  32.261  25.339  1.00  0.00    -0.003 C 
ATOM     20  C   UNL     1      50.479  32.995  25.334  1.00  0.00     0.004 C 
ENDBRANCH  18  19
ENDBRANCH  17  18
ENDBRANCH  16  17
ENDBRANCH  15  16
ENDBRANCH  13  14
ENDBRANCH  12  13
ENDBRANCH   1  11
TORSDOF 14
ENDMDL
MODEL 13
REMARK VINA RESULT:    -5.223      2.493      4.483
REMARK INTER + INTRA:         -11.232
REMARK INTER:                  -9.586
REMARK INTRA:                  -1.646
REMARK UNBOUND:                -1.734
REMARK SMILES CCCCC/C=C\C/C=C\CCCCCCCC(=O)[O-]
REMARK SMILES IDX 11 1 12 2 13 3 14 4 15 5 16 6 17 7 18 8 19 9 20 10 10 11
REMARK SMILES IDX 9 12 8 13 7 14 6 15 5 16 4 17 3 18 2 19 1 20
REMARK H PARENT
REMARK INDEX MAP 8 1 6 2 4 3 3 4 5 5 7 6 9 7 18 8 2 9 1 10 12 11 15 12 16 13
REMARK INDEX MAP 19 14 17 15 13 16 10 17 11 18 14 19 20 20
ROOT
ATOM      1  C   UNL     1      46.708  33.331  27.560  1.00  0.00     0.027 C 
ENDROOT
BRANCH   1   2
ATOM      2  C   UNL     1      45.920  32.188  28.210  1.00  0.00     0.004 C 
BRANCH   2   3
ATOM      3  C   UNL     1      46.765  31.334  29.162  1.00  0.00     0.000 C 
BRANCH   3   4
ATOM      4  C   UNL     1      46.517  31.652  30.641  1.00  0.00     0.000 C 
BRANCH   4   5
ATOM      5  C   UNL     1      45.461  30.751  31.286  1.00  0.00     0.000 C 
BRANCH   5   6
ATOM      6  C   UNL     1      44.693  31.499  32.383  1.00  0.00     0.006 C 
BRANCH   6   7
ATOM      7  C   UNL     1      45.558  31.781  33.611  1.00  0.00     0.053 C 
BRANCH   7   8
ATOM      8  C   UNL     1      45.527  33.228  34.039  1.00  0.00     0.041 C 
ATOM      9  O   UNL     1      46.084  33.702  35.017  1.00  0.00    -0.550 OA
ATOM     10  O   UNL     1      44.804  33.961  33.154  1.00  0.00    -0.550 OA
ENDBRANCH   7   8
ENDBRANCH   6   7
ENDBRANCH   5   6
ENDBRANCH   4   5
ENDBRANCH   3   4
ENDBRANCH   2   3
ENDBRANCH   1   2
BRANCH   1  11
ATOM     11  C   UNL     1      46.132  33.770  26.243  1.00  0.00    -0.031 C 
ATOM     12  C   UNL     1      46.640  34.768  25.504  1.00  0.00    -0.027 C 
BRANCH  12  13
ATOM     13  C   UNL     1      47.847  35.567  25.900  1.00  0.00     0.054 C 
BRANCH  13  14
ATOM     14  C   UNL     1      47.565  37.042  25.870  1.00  0.00    -0.027 C 
ATOM     15  C   UNL     1      47.818  37.866  26.899  1.00  0.00    -0.031 C 
BRANCH  15  16
ATOM     16  C   UNL     1      48.408  37.504  28.235  1.00  0.00     0.027 C 
BRANCH  16  17
ATOM     17  C   UNL     1      47.418  37.203  29.368  1.00  0.00     0.004 C 
BRANCH  17  18
ATOM     18  C   UNL     1      47.719  35.849  30.017  1.00  0.00     0.000 C 
BRANCH  18  19
ATOM     19  C   UNL     1      49.170  35.398  29.835  1.00  0.00    -0.003 C 
ATOM     20  C   UNL     1      50.026  35.589  31.078  1.00  0.00     0.004 C 
ENDBRANCH  18  19
ENDBRANCH  17  18
ENDBRANCH  16  17
ENDBRANCH  15  16
ENDBRANCH  13  14
ENDBRANCH  12  13
ENDBRANCH   1  11
TORSDOF 14
ENDMDL
MODEL 14
REMARK VINA RESULT:    -5.168      4.939      8.005
REMARK INTER + INTRA:         -11.132
REMARK INTER:                  -9.181
REMARK INTRA:                  -1.951
REMARK UNBOUND:                -1.734
REMARK SMILES CCCCC/C=C\C/C=C\CCCCCCCC(=O)[O-]
REMARK SMILES IDX 11 1 12 2 13 3 14 4 15 5 16 6 17 7 18 8 19 9 20 10 10 11
REMARK SMILES IDX 9 12 8 13 7 14 6 15 5 16 4 17 3 18 2 19 1 20
REMARK H PARENT
REMARK INDEX MAP 8 1 6 2 4 3 3 4 5 5 7 6 9 7 18 8 2 9 1 10 12 11 15 12 16 13
REMARK INDEX MAP 19 14 17 15 13 16 10 17 11 18 14 19 20 20
ROOT
ATOM      1  C   UNL     1      46.967  33.242  27.081  1.00  0.00     0.027 C 
ENDROOT
BRANCH   1   2
ATOM      2  C   UNL     1      47.854  32.107  26.556  1.00  0.00     0.004 C 
BRANCH   2   3
ATOM      3  C   UNL     1      49.352  32.408  26.667  1.00  0.00     0.000 C 
BRANCH   3   4
ATOM      4  C   UNL     1      49.950  32.994  25.384  1.00  0.00     0.000 C 
BRANCH   4   5
ATOM      5  C   UNL     1      51.083  32.146  24.800  1.00  0.00     0.000 C 
BRANCH   5   6
ATOM      6  C   UNL     1      52.326  32.191  25.698  1.00  0.00     0.006 C 
BRANCH   6   7
ATOM      7  C   UNL     1      53.507  31.429  25.097  1.00  0.00     0.053 C 
BRANCH   7   8
ATOM      8  C   UNL     1      54.754  32.271  24.974  1.00  0.00     0.041 C 
ATOM      9  O   UNL     1      55.454  32.660  25.896  1.00  0.00    -0.550 OA
ATOM     10  O   UNL     1      55.021  32.521  23.666  1.00  0.00    -0.550 OA
ENDBRANCH   7   8
ENDBRANCH   6   7
ENDBRANCH   5   6
ENDBRANCH   4   5
ENDBRANCH   3   4
ENDBRANCH   2   3
ENDBRANCH   1   2
BRANCH   1  11
ATOM     11  C   UNL     1      46.198  33.940  25.996  1.00  0.00    -0.031 C 
ATOM     12  C   UNL     1      46.581  35.100  25.440  1.00  0.00    -0.027 C 
BRANCH  12  13
ATOM     13  C   UNL     1      47.824  35.841  25.832  1.00  0.00     0.054 C 
BRANCH  13  14
ATOM     14  C   UNL     1      47.587  37.323  25.893  1.00  0.00    -0.027 C 
ATOM     15  C   UNL     1      47.821  38.067  26.985  1.00  0.00    -0.031 C 
BRANCH  15  16
ATOM     16  C   UNL     1      48.344  37.597  28.316  1.00  0.00     0.027 C 
BRANCH  16  17
ATOM     17  C   UNL     1      47.306  37.102  29.330  1.00  0.00     0.004 C 
BRANCH  17  18
ATOM     18  C   UNL     1      47.862  35.947  30.169  1.00  0.00     0.000 C 
BRANCH  18  19
ATOM     19  C   UNL     1      48.912  35.113  29.432  1.00  0.00    -0.003 C 
ATOM     20  C   UNL     1      49.250  33.806  30.133  1.00  0.00     0.004 C 
ENDBRANCH  18  19
ENDBRANCH  17  18
ENDBRANCH  16  17
ENDBRANCH  15  16
ENDBRANCH  13  14
ENDBRANCH  12  13
ENDBRANCH   1  11
TORSDOF 14
ENDMDL
MODEL 15
REMARK VINA RESULT:    -5.089      2.038      4.078
REMARK INTER + INTRA:         -10.989
REMARK INTER:                  -9.563
REMARK INTRA:                  -1.426
REMARK UNBOUND:                -1.734
REMARK SMILES CCCCC/C=C\C/C=C\CCCCCCCC(=O)[O-]
REMARK SMILES IDX 11 1 12 2 13 3 14 4 15 5 16 6 17 7 18 8 19 9 20 10 10 11
REMARK SMILES IDX 9 12 8 13 7 14 6 15 5 16 4 17 3 18 2 19 1 20
REMARK H PARENT
REMARK INDEX MAP 8 1 6 2 4 3 3 4 5 5 7 6 9 7 18 8 2 9 1 10 12 11 15 12 16 13
REMARK INDEX MAP 19 14 17 15 13 16 10 17 11 18 14 19 20 20
ROOT
ATOM      1  C   UNL     1      46.829  35.709  25.469  1.00  0.00     0.027 C 
ENDROOT
BRANCH   1   2
ATOM      2  C   UNL     1      48.028  36.548  25.927  1.00  0.00     0.004 C 
BRANCH   2   3
ATOM      3  C   UNL     1      47.624  37.850  26.627  1.00  0.00     0.000 C 
BRANCH   3   4
ATOM      4  C   UNL     1      48.239  38.005  28.022  1.00  0.00     0.000 C 
BRANCH   4   5
ATOM      5  C   UNL     1      47.606  37.086  29.070  1.00  0.00     0.000 C 
BRANCH   5   6
ATOM      6  C   UNL     1      48.642  36.121  29.658  1.00  0.00     0.006 C 
BRANCH   6   7
ATOM      7  C   UNL     1      48.034  35.171  30.689  1.00  0.00     0.053 C 
BRANCH   7   8
ATOM      8  C   UNL     1      47.715  35.845  32.002  1.00  0.00     0.041 C 
ATOM      9  O   UNL     1      48.516  36.394  32.743  1.00  0.00    -0.550 OA
ATOM     10  O   UNL     1      46.380  35.787  32.244  1.00  0.00    -0.550 OA
ENDBRANCH   7   8
ENDBRANCH   6   7
ENDBRANCH   5   6
ENDBRANCH   4   5
ENDBRANCH   3   4
ENDBRANCH   2   3
ENDBRANCH   1   2
BRANCH   1  11
ATOM     11  C   UNL     1      46.630  34.468  26.292  1.00  0.00    -0.031 C 
ATOM     12  C   UNL     1      47.304  33.325  26.092  1.00  0.00    -0.027 C 
BRANCH  12  13
ATOM     13  C   UNL     1      48.341  33.146  25.023  1.00  0.00     0.054 C 
BRANCH  13  14
ATOM     14  C   UNL     1      49.728  33.365  25.558  1.00  0.00    -0.027 C 
ATOM     15  C   UNL     1      50.766  32.563  25.276  1.00  0.00    -0.031 C 
BRANCH  15  16
ATOM     16  C   UNL     1      50.761  31.333  24.409  1.00  0.00     0.027 C 
BRANCH  16  17
ATOM     17  C   UNL     1      50.046  30.096  24.967  1.00  0.00     0.004 C 
BRANCH  17  18
ATOM     18  C   UNL     1      48.925  29.637  24.031  1.00  0.00     0.000 C 
BRANCH  18  19
ATOM     19  C   UNL     1      47.631  29.278  24.765  1.00  0.00    -0.003 C 
ATOM     20  C   UNL     1      47.050  27.935  24.350  1.00  0.00     0.004 C 
ENDBRANCH  18  19
ENDBRANCH  17  18
ENDBRANCH  16  17
ENDBRANCH  15  16
ENDBRANCH  13  14
ENDBRANCH  12  13
ENDBRANCH   1  11
TORSDOF 14
ENDMDL
MODEL 16
REMARK VINA RESULT:    -5.086      1.804      4.404
REMARK INTER + INTRA:         -10.983
REMARK INTER:                  -9.309
REMARK INTRA:                  -1.674
REMARK UNBOUND:                -1.734
REMARK SMILES CCCCC/C=C\C/C=C\CCCCCCCC(=O)[O-]
REMARK SMILES IDX 11 1 12 2 13 3 14 4 15 5 16 6 17 7 18 8 19 9 20 10 10 11
REMARK SMILES IDX 9 12 8 13 7 14 6 15 5 16 4 17 3 18 2 19 1 20
REMARK H PARENT
REMARK INDEX MAP 8 1 6 2 4 3 3 4 5 5 7 6 9 7 18 8 2 9 1 10 12 11 15 12 16 13
REMARK INDEX MAP 19 14 17 15 13 16 10 17 11 18 14 19 20 20
ROOT
ATOM      1  C   UNL     1      48.877  33.352  32.299  1.00  0.00     0.027 C 
ENDROOT
BRANCH   1   2
ATOM      2  C   UNL     1      48.561  32.421  33.475  1.00  0.00     0.004 C 
BRANCH   2   3
ATOM      3  C   UNL     1      47.066  32.119  33.624  1.00  0.00     0.000 C 
BRANCH   3   4
ATOM      4  C   UNL     1      46.432  32.788  34.848  1.00  0.00     0.000 C 
BRANCH   4   5
ATOM      5  C   UNL     1      45.275  33.727  34.495  1.00  0.00     0.000 C 
BRANCH   5   6
ATOM      6  C   UNL     1      45.542  34.462  33.176  1.00  0.00     0.006 C 
BRANCH   6   7
ATOM      7  C   UNL     1      45.468  35.980  33.329  1.00  0.00     0.053 C 
BRANCH   7   8
ATOM      8  C   UNL     1      44.102  36.468  33.746  1.00  0.00     0.041 C 
ATOM      9  O   UNL     1      43.858  37.207  34.688  1.00  0.00    -0.550 OA
ATOM     10  O   UNL     1      43.156  35.990  32.898  1.00  0.00    -0.550 OA
ENDBRANCH   7   8
ENDBRANCH   6   7
ENDBRANCH   5   6
ENDBRANCH   4   5
ENDBRANCH   3   4
ENDBRANCH   2   3
ENDBRANCH   1   2
BRANCH   1  11
ATOM     11  C   UNL     1      49.444  34.675  32.730  1.00  0.00    -0.031 C 
ATOM     12  C   UNL     1      49.529  35.746  31.926  1.00  0.00    -0.027 C 
BRANCH  12  13
ATOM     13  C   UNL     1      49.068  35.755  30.498  1.00  0.00     0.054 C 
BRANCH  13  14
ATOM     14  C   UNL     1      47.697  36.355  30.366  1.00  0.00    -0.027 C 
ATOM     15  C   UNL     1      47.287  37.032  29.282  1.00  0.00    -0.031 C 
BRANCH  15  16
ATOM     16  C   UNL     1      48.075  37.321  28.032  1.00  0.00     0.027 C 
BRANCH  16  17
ATOM     17  C   UNL     1      47.271  37.559  26.748  1.00  0.00     0.004 C 
BRANCH  17  18
ATOM     18  C   UNL     1      47.694  36.584  25.645  1.00  0.00     0.000 C 
BRANCH  18  19
ATOM     19  C   UNL     1      46.644  35.512  25.348  1.00  0.00    -0.003 C 
ATOM     20  C   UNL     1      46.687  34.337  26.312  1.00  0.00     0.004 C 
ENDBRANCH  18  19
ENDBRANCH  17  18
ENDBRANCH  16  17
ENDBRANCH  15  16
ENDBRANCH  13  14
ENDBRANCH  12  13
ENDBRANCH   1  11
TORSDOF 14
ENDMDL
MODEL 17
REMARK VINA RESULT:    -5.075      4.318      5.043
REMARK INTER + INTRA:         -10.963
REMARK INTER:                  -9.480
REMARK INTRA:                  -1.483
REMARK UNBOUND:                -1.734
REMARK SMILES CCCCC/C=C\C/C=C\CCCCCCCC(=O)[O-]
REMARK SMILES IDX 11 1 12 2 13 3 14 4 15 5 16 6 17 7 18 8 19 9 20 10 10 11
REMARK SMILES IDX 9 12 8 13 7 14 6 15 5 16 4 17 3 18 2 19 1 20
REMARK H PARENT
REMARK INDEX MAP 8 1 6 2 4 3 3 4 5 5 7 6 9 7 18 8 2 9 1 10 12 11 15 12 16 13
REMARK INDEX MAP 19 14 17 15 13 16 10 17 11 18 14 19 20 20
ROOT
ATOM      1  C   UNL     1      48.237  35.685  29.298  1.00  0.00     0.027 C 
ENDROOT
BRANCH   1   2
ATOM      2  C   UNL     1      48.593  35.677  30.789  1.00  0.00     0.004 C 
BRANCH   2   3
ATOM      3  C   UNL     1      50.099  35.586  31.053  1.00  0.00     0.000 C 
BRANCH   3   4
ATOM      4  C   UNL     1      50.453  35.553  32.544  1.00  0.00     0.000 C 
BRANCH   4   5
ATOM      5  C   UNL     1      51.409  36.671  32.965  1.00  0.00     0.000 C 
BRANCH   5   6
ATOM      6  C   UNL     1      52.812  36.121  33.252  1.00  0.00     0.006 C 
BRANCH   6   7
ATOM      7  C   UNL     1      53.749  36.260  32.054  1.00  0.00     0.053 C 
BRANCH   7   8
ATOM      8  C   UNL     1      54.122  34.935  31.434  1.00  0.00     0.041 C 
ATOM      9  O   UNL     1      54.441  34.748  30.270  1.00  0.00    -0.550 OA
ATOM     10  O   UNL     1      54.083  33.954  32.372  1.00  0.00    -0.550 OA
ENDBRANCH   7   8
ENDBRANCH   6   7
ENDBRANCH   5   6
ENDBRANCH   4   5
ENDBRANCH   3   4
ENDBRANCH   2   3
ENDBRANCH   1   2
BRANCH   1  11
ATOM     11  C   UNL     1      47.685  37.001  28.830  1.00  0.00    -0.031 C 
ATOM     12  C   UNL     1      47.627  37.368  27.541  1.00  0.00    -0.027 C 
BRANCH  12  13
ATOM     13  C   UNL     1      48.103  36.509  26.407  1.00  0.00     0.054 C 
BRANCH  13  14
ATOM     14  C   UNL     1      46.979  36.147  25.479  1.00  0.00    -0.027 C 
ATOM     15  C   UNL     1      46.331  34.972  25.523  1.00  0.00    -0.031 C 
BRANCH  15  16
ATOM     16  C   UNL     1      46.582  33.825  26.464  1.00  0.00     0.027 C 
BRANCH  16  17
ATOM     17  C   UNL     1      47.073  32.513  25.838  1.00  0.00     0.004 C 
BRANCH  17  18
ATOM     18  C   UNL     1      48.375  32.726  25.061  1.00  0.00     0.000 C 
BRANCH  18  19
ATOM     19  C   UNL     1      49.569  33.063  25.958  1.00  0.00    -0.003 C 
ATOM     20  C   UNL     1      50.915  32.811  25.297  1.00  0.00     0.004 C 
ENDBRANCH  18  19
ENDBRANCH  17  18
ENDBRANCH  16  17
ENDBRANCH  15  16
ENDBRANCH  13  14
ENDBRANCH  12  13
ENDBRANCH   1  11
TORSDOF 14
ENDMDL
MODEL 18
REMARK VINA RESULT:    -5.058      1.556      2.454
REMARK INTER + INTRA:         -10.932
REMARK INTER:                  -9.005
REMARK INTRA:                  -1.927
REMARK UNBOUND:                -1.734
REMARK SMILES CCCCC/C=C\C/C=C\CCCCCCCC(=O)[O-]
REMARK SMILES IDX 11 1 12 2 13 3 14 4 15 5 16 6 17 7 18 8 19 9 20 10 10 11
REMARK SMILES IDX 9 12 8 13 7 14 6 15 5 16 4 17 3 18 2 19 1 20
REMARK H PARENT
REMARK INDEX MAP 8 1 6 2 4 3 3 4 5 5 7 6 9 7 18 8 2 9 1 10 12 11 15 12 16 13
REMARK INDEX MAP 19 14 17 15 13 16 10 17 11 18 14 19 20 20
ROOT
ATOM      1  C   UNL     1      47.944  34.797  29.551  1.00  0.00     0.027 C 
ENDROOT
BRANCH   1   2
ATOM      2  C   UNL     1      48.682  33.618  30.196  1.00  0.00     0.004 C 
BRANCH   2   3
ATOM      3  C   UNL     1      47.840  32.339  30.264  1.00  0.00     0.000 C 
BRANCH   3   4
ATOM      4  C   UNL     1      46.789  32.363  31.380  1.00  0.00     0.000 C 
BRANCH   4   5
ATOM      5  C   UNL     1      47.342  32.849  32.722  1.00  0.00     0.000 C 
BRANCH   5   6
ATOM      6  C   UNL     1      46.542  34.047  33.249  1.00  0.00     0.006 C 
BRANCH   6   7
ATOM      7  C   UNL     1      47.268  35.373  33.035  1.00  0.00     0.053 C 
BRANCH   7   8
ATOM      8  C   UNL     1      46.337  36.561  33.002  1.00  0.00     0.041 C 
ATOM      9  O   UNL     1      45.166  36.548  32.657  1.00  0.00    -0.550 OA
ATOM     10  O   UNL     1      46.981  37.671  33.445  1.00  0.00    -0.550 OA
ENDBRANCH   7   8
ENDBRANCH   6   7
ENDBRANCH   5   6
ENDBRANCH   4   5
ENDBRANCH   3   4
ENDBRANCH   2   3
ENDBRANCH   1   2
BRANCH   1  11
ATOM     11  C   UNL     1      48.779  36.043  29.473  1.00  0.00    -0.031 C 
ATOM     12  C   UNL     1      48.434  37.127  28.761  1.00  0.00    -0.027 C 
BRANCH  12  13
ATOM     13  C   UNL     1      47.171  37.229  27.958  1.00  0.00     0.054 C 
BRANCH  13  14
ATOM     14  C   UNL     1      47.461  37.364  26.490  1.00  0.00    -0.027 C 
ATOM     15  C   UNL     1      47.188  36.407  25.589  1.00  0.00    -0.031 C 
BRANCH  15  16
ATOM     16  C   UNL     1      46.566  35.061  25.847  1.00  0.00     0.027 C 
BRANCH  16  17
ATOM     17  C   UNL     1      47.385  33.831  25.436  1.00  0.00     0.004 C 
BRANCH  17  18
ATOM     18  C   UNL     1      48.724  33.787  26.177  1.00  0.00     0.000 C 
BRANCH  18  19
ATOM     19  C   UNL     1      49.874  33.255  25.319  1.00  0.00    -0.003 C 
ATOM     20  C   UNL     1      49.925  31.736  25.246  1.00  0.00     0.004 C 
ENDBRANCH  18  19
ENDBRANCH  17  18
ENDBRANCH  16  17
ENDBRANCH  15  16
ENDBRANCH  13  14
ENDBRANCH  12  13
ENDBRANCH   1  11
TORSDOF 14
ENDMDL
MODEL 19
REMARK VINA RESULT:    -5.002      1.943      3.819
REMARK INTER + INTRA:         -10.830
REMARK INTER:                  -8.572
REMARK INTRA:                  -2.258
REMARK UNBOUND:                -1.734
REMARK SMILES CCCCC/C=C\C/C=C\CCCCCCCC(=O)[O-]
REMARK SMILES IDX 11 1 12 2 13 3 14 4 15 5 16 6 17 7 18 8 19 9 20 10 10 11
REMARK SMILES IDX 9 12 8 13 7 14 6 15 5 16 4 17 3 18 2 19 1 20
REMARK H PARENT
REMARK INDEX MAP 8 1 6 2 4 3 3 4 5 5 7 6 9 7 18 8 2 9 1 10 12 11 15 12 16 13
REMARK INDEX MAP 19 14 17 15 13 16 10 17 11 18 14 19 20 20
ROOT
ATOM      1  C   UNL     1      47.749  36.126  25.927  1.00  0.00     0.027 C 
ENDROOT
BRANCH   1   2
ATOM      2  C   UNL     1      47.525  37.531  26.497  1.00  0.00     0.004 C 
BRANCH   2   3
ATOM      3  C   UNL     1      48.242  37.765  27.831  1.00  0.00     0.000 C 
BRANCH   3   4
ATOM      4  C   UNL     1      47.661  36.938  28.984  1.00  0.00     0.000 C 
BRANCH   4   5
ATOM      5  C   UNL     1      48.614  35.855  29.493  1.00  0.00     0.000 C 
BRANCH   5   6
ATOM      6  C   UNL     1      48.761  35.919  31.018  1.00  0.00     0.006 C 
BRANCH   6   7
ATOM      7  C   UNL     1      47.661  35.146  31.743  1.00  0.00     0.053 C 
BRANCH   7   8
ATOM      8  C   UNL     1      46.889  35.993  32.726  1.00  0.00     0.041 C 
ATOM      9  O   UNL     1      47.287  37.015  33.263  1.00  0.00    -0.550 OA
ATOM     10  O   UNL     1      45.650  35.473  32.919  1.00  0.00    -0.550 OA
ENDBRANCH   7   8
ENDBRANCH   6   7
ENDBRANCH   5   6
ENDBRANCH   4   5
ENDBRANCH   3   4
ENDBRANCH   2   3
ENDBRANCH   1   2
BRANCH   1  11
ATOM     11  C   UNL     1      46.554  35.592  25.189  1.00  0.00    -0.031 C 
ATOM     12  C   UNL     1      46.149  34.314  25.252  1.00  0.00    -0.027 C 
BRANCH  12  13
ATOM     13  C   UNL     1      46.838  33.262  26.069  1.00  0.00     0.054 C 
BRANCH  13  14
ATOM     14  C   UNL     1      46.233  33.143  27.439  1.00  0.00    -0.027 C 
ATOM     15  C   UNL     1      46.923  32.752  28.522  1.00  0.00    -0.031 C 
BRANCH  15  16
ATOM     16  C   UNL     1      48.375  32.365  28.590  1.00  0.00     0.027 C 
BRANCH  16  17
ATOM     17  C   UNL     1      48.870  31.763  29.911  1.00  0.00     0.004 C 
BRANCH  17  18
ATOM     18  C   UNL     1      50.135  32.472  30.401  1.00  0.00     0.000 C 
BRANCH  18  19
ATOM     19  C   UNL     1      50.270  32.486  31.925  1.00  0.00    -0.003 C 
ATOM     20  C   UNL     1      49.100  31.834  32.645  1.00  0.00     0.004 C 
ENDBRANCH  18  19
ENDBRANCH  17  18
ENDBRANCH  16  17
ENDBRANCH  15  16
ENDBRANCH  13  14
ENDBRANCH  12  13
ENDBRANCH   1  11
TORSDOF 14
ENDMDL
MODEL 20
REMARK VINA RESULT:    -4.995      2.281      3.926
REMARK INTER + INTRA:         -10.817
REMARK INTER:                  -9.274
REMARK INTRA:                  -1.543
REMARK UNBOUND:                -1.734
REMARK SMILES CCCCC/C=C\C/C=C\CCCCCCCC(=O)[O-]
REMARK SMILES IDX 11 1 12 2 13 3 14 4 15 5 16 6 17 7 18 8 19 9 20 10 10 11
REMARK SMILES IDX 9 12 8 13 7 14 6 15 5 16 4 17 3 18 2 19 1 20
REMARK H PARENT
REMARK INDEX MAP 8 1 6 2 4 3 3 4 5 5 7 6 9 7 18 8 2 9 1 10 12 11 15 12 16 13
REMARK INDEX MAP 19 14 17 15 13 16 10 17 11 18 14 19 20 20
ROOT
ATOM      1  C   UNL     1      48.018  36.422  26.148  1.00  0.00     0.027 C 
ENDROOT
BRANCH   1   2
ATOM      2  C   UNL     1      47.969  37.877  26.629  1.00  0.00     0.004 C 
BRANCH   2   3
ATOM      3  C   UNL     1      48.288  38.033  28.120  1.00  0.00     0.000 C 
BRANCH   3   4
ATOM      4  C   UNL     1      47.655  36.944  28.993  1.00  0.00     0.000 C 
BRANCH   4   5
ATOM      5  C   UNL     1      48.684  36.042  29.680  1.00  0.00     0.000 C 
BRANCH   5   6
ATOM      6  C   UNL     1      48.011  35.103  30.688  1.00  0.00     0.006 C 
BRANCH   6   7
ATOM      7  C   UNL     1      48.143  35.601  32.127  1.00  0.00     0.053 C 
BRANCH   7   8
ATOM      8  C   UNL     1      46.865  36.193  32.670  1.00  0.00     0.041 C 
ATOM      9  O   UNL     1      46.361  37.252  32.330  1.00  0.00    -0.550 OA
ATOM     10  O   UNL     1      46.316  35.357  33.589  1.00  0.00    -0.550 OA
ENDBRANCH   7   8
ENDBRANCH   6   7
ENDBRANCH   5   6
ENDBRANCH   4   5
ENDBRANCH   3   4
ENDBRANCH   2   3
ENDBRANCH   1   2
BRANCH   1  11
ATOM     11  C   UNL     1      46.738  35.972  25.501  1.00  0.00    -0.031 C 
ATOM     12  C   UNL     1      46.491  34.703  25.144  1.00  0.00    -0.027 C 
BRANCH  12  13
ATOM     13  C   UNL     1      47.460  33.576  25.347  1.00  0.00     0.054 C 
BRANCH  13  14
ATOM     14  C   UNL     1      46.751  32.288  25.654  1.00  0.00    -0.027 C 
ATOM     15  C   UNL     1      46.511  31.853  26.901  1.00  0.00    -0.031 C 
BRANCH  15  16
ATOM     16  C   UNL     1      46.885  32.529  28.192  1.00  0.00     0.027 C 
BRANCH  16  17
ATOM     17  C   UNL     1      46.299  31.935  29.479  1.00  0.00     0.004 C 
BRANCH  17  18
ATOM     18  C   UNL     1      44.990  31.191  29.196  1.00  0.00     0.000 C 
BRANCH  18  19
ATOM     19  C   UNL     1      44.072  31.094  30.417  1.00  0.00    -0.003 C 
ATOM     20  C   UNL     1      44.778  31.385  31.732  1.00  0.00     0.004 C 
ENDBRANCH  18  19
ENDBRANCH  17  18
ENDBRANCH  16  17
ENDBRANCH  15  16
ENDBRANCH  13  14
ENDBRANCH  12  13
ENDBRANCH   1  11
TORSDOF 14
ENDMDL
