MODEL 1
REMARK VINA RESULT:    -4.765      0.000      0.000
REMARK INTER + INTRA:          -7.735
REMARK INTER:                  -7.133
REMARK INTRA:                  -0.602
REMARK UNBOUND:                -0.602
REMARK SMILES CCCCCCCCCC(=O)O
REMARK SMILES IDX 7 1 8 2 9 3 10 4 11 5 12 6 6 8 5 9 4 10 3 11 2 12 1 13
REMARK H PARENT 12 7
REMARK INDEX MAP 5 1 4 2 3 3 1 4 2 5 12 6 32 7 6 8 7 9 8 10 9 11 10 12 11 13
ROOT
ATOM      1  C   UNL     1      47.935  35.794  29.670  1.00  0.00     0.001 C 
ENDROOT
BRANCH   1   2
ATOM      2  C   UNL     1      48.333  35.795  31.153  1.00  0.00     0.012 C 
BRANCH   2   3
ATOM      3  C   UNL     1      47.256  35.519  32.130  1.00  0.00     0.122 C 
BRANCH   3   4
ATOM      4  C   UNL     1      46.515  36.713  32.718  1.00  0.00     0.303 C 
ATOM      5  O   UNL     1      47.140  37.530  33.443  1.00  0.00    -0.252 OA
BRANCH   4   6
ATOM      6  O   UNL     1      45.298  36.865  32.437  1.00  0.00    -0.481 OA
ATOM      7  H   UNL     1      44.998  36.816  31.495  1.00  0.00     0.296 HD
ENDBRANCH   4   6
ENDBRANCH   3   4
ENDBRANCH   2   3
ENDBRANCH   1   2
BRANCH   1   8
ATOM      8  C   UNL     1      47.630  37.133  29.136  1.00  0.00     0.000 C 
BRANCH   8   9
ATOM      9  C   UNL     1      48.454  37.779  28.182  1.00  0.00     0.000 C 
BRANCH   9  10
ATOM     10  C   UNL     1      48.003  38.102  26.816  1.00  0.00    -0.000 C 
BRANCH  10  11
ATOM     11  C   UNL     1      46.943  37.229  26.316  1.00  0.00    -0.000 C 
BRANCH  11  12
ATOM     12  C   UNL     1      47.247  36.069  25.602  1.00  0.00    -0.003 C 
ATOM     13  C   UNL     1      46.706  34.782  25.948  1.00  0.00     0.004 C 
ENDBRANCH  11  12
ENDBRANCH  10  11
ENDBRANCH   9  10
ENDBRANCH   8   9
ENDBRANCH   1   8
TORSDOF 9
ENDMDL
MODEL 2
REMARK VINA RESULT:    -4.728      2.268      3.926
REMARK INTER + INTRA:          -7.679
REMARK INTER:                  -6.861
REMARK INTRA:                  -0.817
REMARK UNBOUND:                -0.602
REMARK SMILES CCCCCCCCCC(=O)O
REMARK SMILES IDX 7 1 8 2 9 3 10 4 11 5 12 6 6 8 5 9 4 10 3 11 2 12 1 13
REMARK H PARENT 12 7
REMARK INDEX MAP 5 1 4 2 3 3 1 4 2 5 12 6 32 7 6 8 7 9 8 10 9 11 10 12 11 13
ROOT
ATOM      1  C   UNL     1      46.957  37.540  26.613  1.00  0.00     0.001 C 
ENDROOT
BRANCH   1   2
ATOM      2  C   UNL     1      48.119  38.047  27.480  1.00  0.00     0.012 C 
BRANCH   2   3
ATOM      3  C   UNL     1      48.669  37.096  28.472  1.00  0.00     0.122 C 
BRANCH   3   4
ATOM      4  C   UNL     1      47.685  36.409  29.411  1.00  0.00     0.303 C 
ATOM      5  O   UNL     1      47.444  35.183  29.260  1.00  0.00    -0.252 OA
BRANCH   4   6
ATOM      6  O   UNL     1      47.160  37.084  30.333  1.00  0.00    -0.481 OA
ATOM      7  H   UNL     1      46.981  38.048  30.200  1.00  0.00     0.296 HD
ENDBRANCH   4   6
ENDBRANCH   3   4
ENDBRANCH   2   3
ENDBRANCH   1   2
BRANCH   1   8
ATOM      8  C   UNL     1      47.346  36.495  25.649  1.00  0.00     0.000 C 
BRANCH   8   9
ATOM      9  C   UNL     1      46.692  35.241  25.580  1.00  0.00     0.000 C 
BRANCH   9  10
ATOM     10  C   UNL     1      47.386  33.958  25.794  1.00  0.00    -0.000 C 
BRANCH  10  11
ATOM     11  C   UNL     1      48.829  34.085  25.985  1.00  0.00    -0.000 C 
BRANCH  11  12
ATOM     12  C   UNL     1      49.705  33.115  25.497  1.00  0.00    -0.003 C 
ATOM     13  C   UNL     1      49.268  32.021  24.671  1.00  0.00     0.004 C 
ENDBRANCH  11  12
ENDBRANCH  10  11
ENDBRANCH   9  10
ENDBRANCH   8   9
ENDBRANCH   1   8
TORSDOF 9
ENDMDL
MODEL 3
REMARK VINA RESULT:    -4.691      3.702      5.636
REMARK INTER + INTRA:          -7.624
REMARK INTER:                  -6.721
REMARK INTRA:                  -0.903
REMARK UNBOUND:                -0.602
REMARK SMILES CCCCCCCCCC(=O)O
REMARK SMILES IDX 7 1 8 2 9 3 10 4 11 5 12 6 6 8 5 9 4 10 3 11 2 12 1 13
REMARK H PARENT 12 7
REMARK INDEX MAP 5 1 4 2 3 3 1 4 2 5 12 6 32 7 6 8 7 9 8 10 9 11 10 12 11 13
ROOT
ATOM      1  C   UNL     1      48.054  37.800  26.365  1.00  0.00     0.001 C 
ENDROOT
BRANCH   1   2
ATOM      2  C   UNL     1      46.917  36.827  26.022  1.00  0.00     0.012 C 
BRANCH   2   3
ATOM      3  C   UNL     1      47.293  35.602  25.283  1.00  0.00     0.122 C 
BRANCH   3   4
ATOM      4  C   UNL     1      46.180  34.825  24.592  1.00  0.00     0.303 C 
ATOM      5  O   UNL     1      45.457  34.049  25.271  1.00  0.00    -0.252 OA
BRANCH   4   6
ATOM      6  O   UNL     1      45.997  35.001  23.361  1.00  0.00    -0.481 OA
ATOM      7  H   UNL     1      46.382  34.366  22.707  1.00  0.00     0.296 HD
ENDBRANCH   4   6
ENDBRANCH   3   4
ENDBRANCH   2   3
ENDBRANCH   1   2
BRANCH   1   8
ATOM      8  C   UNL     1      48.375  37.857  27.802  1.00  0.00     0.000 C 
BRANCH   8   9
ATOM      9  C   UNL     1      47.480  37.402  28.801  1.00  0.00     0.000 C 
BRANCH   9  10
ATOM     10  C   UNL     1      47.771  36.256  29.681  1.00  0.00    -0.000 C 
BRANCH  10  11
ATOM     11  C   UNL     1      48.365  35.112  28.993  1.00  0.00    -0.000 C 
BRANCH  11  12
ATOM     12  C   UNL     1      47.625  33.952  28.758  1.00  0.00    -0.003 C 
ATOM     13  C   UNL     1      47.968  33.011  27.725  1.00  0.00     0.004 C 
ENDBRANCH  11  12
ENDBRANCH  10  11
ENDBRANCH   9  10
ENDBRANCH   8   9
ENDBRANCH   1   8
TORSDOF 9
ENDMDL
MODEL 4
REMARK VINA RESULT:    -4.650      1.468      2.559
REMARK INTER + INTRA:          -7.563
REMARK INTER:                  -6.806
REMARK INTRA:                  -0.756
REMARK UNBOUND:                -0.602
REMARK SMILES CCCCCCCCCC(=O)O
REMARK SMILES IDX 7 1 8 2 9 3 10 4 11 5 12 6 6 8 5 9 4 10 3 11 2 12 1 13
REMARK H PARENT 12 7
REMARK INDEX MAP 5 1 4 2 3 3 1 4 2 5 12 6 32 7 6 8 7 9 8 10 9 11 10 12 11 13
ROOT
ATOM      1  C   UNL     1      48.394  37.911  28.172  1.00  0.00     0.001 C 
ENDROOT
BRANCH   1   2
ATOM      2  C   UNL     1      47.618  36.940  29.072  1.00  0.00     0.012 C 
BRANCH   2   3
ATOM      3  C   UNL     1      48.417  35.929  29.801  1.00  0.00     0.122 C 
BRANCH   3   4
ATOM      4  C   UNL     1      48.020  35.619  31.238  1.00  0.00     0.303 C 
ATOM      5  O   UNL     1      48.512  36.301  32.175  1.00  0.00    -0.252 OA
BRANCH   4   6
ATOM      6  O   UNL     1      47.185  34.702  31.448  1.00  0.00    -0.481 OA
ATOM      7  H   UNL     1      46.230  34.925  31.589  1.00  0.00     0.296 HD
ENDBRANCH   4   6
ENDBRANCH   3   4
ENDBRANCH   2   3
ENDBRANCH   1   2
BRANCH   1   8
ATOM      8  C   UNL     1      47.889  37.973  26.789  1.00  0.00     0.000 C 
BRANCH   8   9
ATOM      9  C   UNL     1      48.008  36.889  25.885  1.00  0.00     0.000 C 
BRANCH   9  10
ATOM     10  C   UNL     1      46.882  36.001  25.541  1.00  0.00    -0.000 C 
BRANCH  10  11
ATOM     11  C   UNL     1      46.926  34.698  26.201  1.00  0.00    -0.000 C 
BRANCH  11  12
ATOM     12  C   UNL     1      48.121  33.984  26.298  1.00  0.00    -0.003 C 
ATOM     13  C   UNL     1      48.710  33.304  25.175  1.00  0.00     0.004 C 
ENDBRANCH  11  12
ENDBRANCH  10  11
ENDBRANCH   9  10
ENDBRANCH   8   9
ENDBRANCH   1   8
TORSDOF 9
ENDMDL
MODEL 5
REMARK VINA RESULT:    -4.564      0.847      1.376
REMARK INTER + INTRA:          -7.434
REMARK INTER:                  -7.024
REMARK INTRA:                  -0.410
REMARK UNBOUND:                -0.602
REMARK SMILES CCCCCCCCCC(=O)O
REMARK SMILES IDX 7 1 8 2 9 3 10 4 11 5 12 6 6 8 5 9 4 10 3 11 2 12 1 13
REMARK H PARENT 12 7
REMARK INDEX MAP 5 1 4 2 3 3 1 4 2 5 12 6 32 7 6 8 7 9 8 10 9 11 10 12 11 13
ROOT
ATOM      1  C   UNL     1      47.660  36.821  29.300  1.00  0.00     0.001 C 
ENDROOT
BRANCH   1   2
ATOM      2  C   UNL     1      48.539  35.937  30.197  1.00  0.00     0.012 C 
BRANCH   2   3
ATOM      3  C   UNL     1      47.844  35.162  31.248  1.00  0.00     0.122 C 
BRANCH   3   4
ATOM      4  C   UNL     1      47.283  35.931  32.437  1.00  0.00     0.303 C 
ATOM      5  O   UNL     1      48.034  36.713  33.075  1.00  0.00    -0.252 OA
BRANCH   4   6
ATOM      6  O   UNL     1      46.069  35.782  32.732  1.00  0.00    -0.481 OA
ATOM      7  H   UNL     1      45.817  35.371  33.597  1.00  0.00     0.296 HD
ENDBRANCH   4   6
ENDBRANCH   3   4
ENDBRANCH   2   3
ENDBRANCH   1   2
BRANCH   1   8
ATOM      8  C   UNL     1      48.373  37.387  28.141  1.00  0.00     0.000 C 
BRANCH   8   9
ATOM      9  C   UNL     1      47.699  37.864  26.990  1.00  0.00     0.000 C 
BRANCH   9  10
ATOM     10  C   UNL     1      47.161  36.974  25.946  1.00  0.00    -0.000 C 
BRANCH  10  11
ATOM     11  C   UNL     1      47.668  35.605  26.010  1.00  0.00    -0.000 C 
BRANCH  11  12
ATOM     12  C   UNL     1      46.814  34.515  25.839  1.00  0.00    -0.003 C 
ATOM     13  C   UNL     1      45.832  34.458  24.789  1.00  0.00     0.004 C 
ENDBRANCH  11  12
ENDBRANCH  10  11
ENDBRANCH   9  10
ENDBRANCH   8   9
ENDBRANCH   1   8
TORSDOF 9
ENDMDL
MODEL 6
REMARK VINA RESULT:    -4.541      4.250      5.930
REMARK INTER + INTRA:          -7.400
REMARK INTER:                  -6.597
REMARK INTRA:                  -0.803
REMARK UNBOUND:                -0.602
REMARK SMILES CCCCCCCCCC(=O)O
REMARK SMILES IDX 7 1 8 2 9 3 10 4 11 5 12 6 6 8 5 9 4 10 3 11 2 12 1 13
REMARK H PARENT 12 7
REMARK INDEX MAP 5 1 4 2 3 3 1 4 2 5 12 6 32 7 6 8 7 9 8 10 9 11 10 12 11 13
ROOT
ATOM      1  C   UNL     1      46.733  34.527  26.231  1.00  0.00     0.001 C 
ENDROOT
BRANCH   1   2
ATOM      2  C   UNL     1      48.095  33.900  26.562  1.00  0.00     0.012 C 
BRANCH   2   3
ATOM      3  C   UNL     1      48.746  33.123  25.484  1.00  0.00     0.122 C 
BRANCH   3   4
ATOM      4  C   UNL     1      50.169  32.635  25.727  1.00  0.00     0.303 C 
ATOM      5  O   UNL     1      50.911  32.384  24.742  1.00  0.00    -0.252 OA
BRANCH   4   6
ATOM      6  O   UNL     1      50.572  32.521  26.912  1.00  0.00    -0.481 OA
ATOM      7  H   UNL     1      51.539  32.421  27.098  1.00  0.00     0.296 HD
ENDBRANCH   4   6
ENDBRANCH   3   4
ENDBRANCH   2   3
ENDBRANCH   1   2
BRANCH   1   8
ATOM      8  C   UNL     1      46.828  35.818  25.526  1.00  0.00     0.000 C 
BRANCH   8   9
ATOM      9  C   UNL     1      47.867  36.748  25.777  1.00  0.00     0.000 C 
BRANCH   9  10
ATOM     10  C   UNL     1      47.681  37.962  26.592  1.00  0.00    -0.000 C 
BRANCH  10  11
ATOM     11  C   UNL     1      48.286  37.888  27.920  1.00  0.00    -0.000 C 
BRANCH  11  12
ATOM     12  C   UNL     1      47.690  37.143  28.938  1.00  0.00    -0.003 C 
ATOM     13  C   UNL     1      48.364  36.057  29.599  1.00  0.00     0.004 C 
ENDBRANCH  11  12
ENDBRANCH  10  11
ENDBRANCH   9  10
ENDBRANCH   8   9
ENDBRANCH   1   8
TORSDOF 9
ENDMDL
MODEL 7
REMARK VINA RESULT:    -4.438      3.347      4.730
REMARK INTER + INTRA:          -7.246
REMARK INTER:                  -6.614
REMARK INTRA:                  -0.632
REMARK UNBOUND:                -0.602
REMARK SMILES CCCCCCCCCC(=O)O
REMARK SMILES IDX 7 1 8 2 9 3 10 4 11 5 12 6 6 8 5 9 4 10 3 11 2 12 1 13
REMARK H PARENT 12 7
REMARK INDEX MAP 5 1 4 2 3 3 1 4 2 5 12 6 32 7 6 8 7 9 8 10 9 11 10 12 11 13
ROOT
ATOM      1  C   UNL     1      47.671  35.837  29.573  1.00  0.00     0.001 C 
ENDROOT
BRANCH   1   2
ATOM      2  C   UNL     1      47.520  37.262  29.020  1.00  0.00     0.012 C 
BRANCH   2   3
ATOM      3  C   UNL     1      48.391  37.627  27.880  1.00  0.00     0.122 C 
BRANCH   3   4
ATOM      4  C   UNL     1      47.717  37.946  26.552  1.00  0.00     0.303 C 
ATOM      5  O   UNL     1      46.606  37.418  26.282  1.00  0.00    -0.252 OA
BRANCH   4   6
ATOM      6  O   UNL     1      48.279  38.754  25.770  1.00  0.00    -0.481 OA
ATOM      7  H   UNL     1      49.155  38.526  25.369  1.00  0.00     0.296 HD
ENDBRANCH   4   6
ENDBRANCH   3   4
ENDBRANCH   2   3
ENDBRANCH   1   2
BRANCH   1   8
ATOM      8  C   UNL     1      48.083  34.848  28.561  1.00  0.00     0.000 C 
BRANCH   8   9
ATOM      9  C   UNL     1      47.150  34.146  27.759  1.00  0.00     0.000 C 
BRANCH   9  10
ATOM     10  C   UNL     1      47.238  34.087  26.288  1.00  0.00    -0.000 C 
BRANCH  10  11
ATOM     11  C   UNL     1      47.738  32.815  25.771  1.00  0.00    -0.000 C 
BRANCH  11  12
ATOM     12  C   UNL     1      48.862  32.769  24.945  1.00  0.00    -0.003 C 
ATOM     13  C   UNL     1      50.195  32.998  25.437  1.00  0.00     0.004 C 
ENDBRANCH  11  12
ENDBRANCH  10  11
ENDBRANCH   9  10
ENDBRANCH   8   9
ENDBRANCH   1   8
TORSDOF 9
ENDMDL
MODEL 8
REMARK VINA RESULT:    -4.426      2.882      5.060
REMARK INTER + INTRA:          -7.228
REMARK INTER:                  -6.413
REMARK INTRA:                  -0.815
REMARK UNBOUND:                -0.602
REMARK SMILES CCCCCCCCCC(=O)O
REMARK SMILES IDX 7 1 8 2 9 3 10 4 11 5 12 6 6 8 5 9 4 10 3 11 2 12 1 13
REMARK H PARENT 12 7
REMARK INDEX MAP 5 1 4 2 3 3 1 4 2 5 12 6 32 7 6 8 7 9 8 10 9 11 10 12 11 13
ROOT
ATOM      1  C   UNL     1      47.703  35.544  25.714  1.00  0.00     0.001 C 
ENDROOT
BRANCH   1   2
ATOM      2  C   UNL     1      46.726  34.583  25.021  1.00  0.00     0.012 C 
BRANCH   2   3
ATOM      3  C   UNL     1      45.876  33.752  25.903  1.00  0.00     0.122 C 
BRANCH   3   4
ATOM      4  C   UNL     1      46.559  33.008  27.042  1.00  0.00     0.303 C 
ATOM      5  O   UNL     1      47.449  32.158  26.778  1.00  0.00    -0.252 OA
BRANCH   4   6
ATOM      6  O   UNL     1      46.231  33.284  28.225  1.00  0.00    -0.481 OA
ATOM      7  H   UNL     1      45.297  33.537  28.433  1.00  0.00     0.296 HD
ENDBRANCH   4   6
ENDBRANCH   3   4
ENDBRANCH   2   3
ENDBRANCH   1   2
BRANCH   1   8
ATOM      8  C   UNL     1      47.111  36.847  26.061  1.00  0.00     0.000 C 
BRANCH   8   9
ATOM      9  C   UNL     1      47.869  37.903  26.624  1.00  0.00     0.000 C 
BRANCH   9  10
ATOM     10  C   UNL     1      48.359  37.889  28.015  1.00  0.00    -0.000 C 
BRANCH  10  11
ATOM     11  C   UNL     1      47.413  37.326  28.975  1.00  0.00    -0.000 C 
BRANCH  11  12
ATOM     12  C   UNL     1      47.727  36.175  29.700  1.00  0.00    -0.003 C 
ATOM     13  C   UNL     1      48.855  35.342  29.380  1.00  0.00     0.004 C 
ENDBRANCH  11  12
ENDBRANCH  10  11
ENDBRANCH   9  10
ENDBRANCH   8   9
ENDBRANCH   1   8
TORSDOF 9
ENDMDL
MODEL 9
REMARK VINA RESULT:    -4.257      1.046      2.214
REMARK INTER + INTRA:          -6.974
REMARK INTER:                  -6.282
REMARK INTRA:                  -0.692
REMARK UNBOUND:                -0.602
REMARK SMILES CCCCCCCCCC(=O)O
REMARK SMILES IDX 7 1 8 2 9 3 10 4 11 5 12 6 6 8 5 9 4 10 3 11 2 12 1 13
REMARK H PARENT 12 7
REMARK INDEX MAP 5 1 4 2 3 3 1 4 2 5 12 6 32 7 6 8 7 9 8 10 9 11 10 12 11 13
ROOT
ATOM      1  C   UNL     1      48.438  35.221  29.231  1.00  0.00     0.001 C 
ENDROOT
BRANCH   1   2
ATOM      2  C   UNL     1      47.714  36.090  30.270  1.00  0.00     0.012 C 
BRANCH   2   3
ATOM      3  C   UNL     1      47.722  35.599  31.666  1.00  0.00     0.122 C 
BRANCH   3   4
ATOM      4  C   UNL     1      46.763  36.257  32.650  1.00  0.00     0.303 C 
ATOM      5  O   UNL     1      47.133  37.282  33.279  1.00  0.00    -0.252 OA
BRANCH   4   6
ATOM      6  O   UNL     1      45.612  35.769  32.787  1.00  0.00    -0.481 OA
ATOM      7  H   UNL     1      45.014  35.683  32.002  1.00  0.00     0.296 HD
ENDBRANCH   4   6
ENDBRANCH   3   4
ENDBRANCH   2   3
ENDBRANCH   1   2
BRANCH   1   8
ATOM      8  C   UNL     1      47.664  34.046  28.795  1.00  0.00     0.000 C 
BRANCH   8   9
ATOM      9  C   UNL     1      46.900  34.036  27.602  1.00  0.00     0.000 C 
BRANCH   9  10
ATOM     10  C   UNL     1      47.458  34.399  26.287  1.00  0.00    -0.000 C 
BRANCH  10  11
ATOM     11  C   UNL     1      46.883  35.612  25.710  1.00  0.00    -0.000 C 
BRANCH  11  12
ATOM     12  C   UNL     1      47.566  36.828  25.768  1.00  0.00    -0.003 C 
ATOM     13  C   UNL     1      47.365  37.778  26.830  1.00  0.00     0.004 C 
ENDBRANCH  11  12
ENDBRANCH  10  11
ENDBRANCH   9  10
ENDBRANCH   8   9
ENDBRANCH   1   8
TORSDOF 9
ENDMDL
MODEL 10
REMARK VINA RESULT:    -4.194      2.249      4.289
REMARK INTER + INTRA:          -6.880
REMARK INTER:                  -6.391
REMARK INTRA:                  -0.489
REMARK UNBOUND:                -0.602
REMARK SMILES CCCCCCCCCC(=O)O
REMARK SMILES IDX 7 1 8 2 9 3 10 4 11 5 12 6 6 8 5 9 4 10 3 11 2 12 1 13
REMARK H PARENT 12 7
REMARK INDEX MAP 5 1 4 2 3 3 1 4 2 5 12 6 32 7 6 8 7 9 8 10 9 11 10 12 11 13
ROOT
ATOM      1  C   UNL     1      47.887  36.702  25.843  1.00  0.00     0.001 C 
ENDROOT
BRANCH   1   2
ATOM      2  C   UNL     1      47.635  37.837  26.847  1.00  0.00     0.012 C 
BRANCH   2   3
ATOM      3  C   UNL     1      48.337  37.741  28.146  1.00  0.00     0.122 C 
BRANCH   3   4
ATOM      4  C   UNL     1      47.740  36.823  29.205  1.00  0.00     0.303 C 
ATOM      5  O   UNL     1      47.107  37.325  30.170  1.00  0.00    -0.252 OA
BRANCH   4   6
ATOM      6  O   UNL     1      47.874  35.580  29.069  1.00  0.00    -0.481 OA
ATOM      7  H   UNL     1      47.726  35.160  28.185  1.00  0.00     0.296 HD
ENDBRANCH   4   6
ENDBRANCH   3   4
ENDBRANCH   2   3
ENDBRANCH   1   2
BRANCH   1   8
ATOM      8  C   UNL     1      46.686  35.912  25.524  1.00  0.00     0.000 C 
BRANCH   8   9
ATOM      9  C   UNL     1      46.749  34.663  24.859  1.00  0.00     0.000 C 
BRANCH   9  10
ATOM     10  C   UNL     1      46.259  33.407  25.455  1.00  0.00    -0.000 C 
BRANCH  10  11
ATOM     11  C   UNL     1      46.139  33.445  26.911  1.00  0.00    -0.000 C 
BRANCH  11  12
ATOM     12  C   UNL     1      46.225  32.277  27.669  1.00  0.00    -0.003 C 
ATOM     13  C   UNL     1      47.351  31.985  28.515  1.00  0.00     0.004 C 
ENDBRANCH  11  12
ENDBRANCH  10  11
ENDBRANCH   9  10
ENDBRANCH   8   9
ENDBRANCH   1   8
TORSDOF 9
ENDMDL
MODEL 11
REMARK VINA RESULT:    -4.188      6.008      7.566
REMARK INTER + INTRA:          -6.871
REMARK INTER:                  -6.565
REMARK INTRA:                  -0.305
REMARK UNBOUND:                -0.602
REMARK SMILES CCCCCCCCCC(=O)O
REMARK SMILES IDX 7 1 8 2 9 3 10 4 11 5 12 6 6 8 5 9 4 10 3 11 2 12 1 13
REMARK H PARENT 12 7
REMARK INDEX MAP 5 1 4 2 3 3 1 4 2 5 12 6 32 7 6 8 7 9 8 10 9 11 10 12 11 13
ROOT
ATOM      1  C   UNL     1      49.966  32.155  25.299  1.00  0.00     0.001 C 
ENDROOT
BRANCH   1   2
ATOM      2  C   UNL     1      51.312  32.893  25.318  1.00  0.00     0.012 C 
BRANCH   2   3
ATOM      3  C   UNL     1      52.519  32.078  25.057  1.00  0.00     0.122 C 
BRANCH   3   4
ATOM      4  C   UNL     1      53.875  32.718  25.327  1.00  0.00     0.303 C 
ATOM      5  O   UNL     1      54.793  32.599  24.474  1.00  0.00    -0.252 OA
BRANCH   4   6
ATOM      6  O   UNL     1      54.030  33.375  26.388  1.00  0.00    -0.481 OA
ATOM      7  H   UNL     1      54.543  34.222  26.375  1.00  0.00     0.296 HD
ENDBRANCH   4   6
ENDBRANCH   3   4
ENDBRANCH   2   3
ENDBRANCH   1   2
BRANCH   1   8
ATOM      8  C   UNL     1      48.844  32.975  24.811  1.00  0.00     0.000 C 
BRANCH   8   9
ATOM      9  C   UNL     1      47.840  33.483  25.672  1.00  0.00     0.000 C 
BRANCH   9  10
ATOM     10  C   UNL     1      46.607  34.124  25.181  1.00  0.00    -0.000 C 
BRANCH  10  11
ATOM     11  C   UNL     1      46.583  35.576  25.345  1.00  0.00    -0.000 C 
BRANCH  11  12
ATOM     12  C   UNL     1      47.609  36.238  26.021  1.00  0.00    -0.003 C 
ATOM     13  C   UNL     1      47.641  37.669  26.170  1.00  0.00     0.004 C 
ENDBRANCH  11  12
ENDBRANCH  10  11
ENDBRANCH   9  10
ENDBRANCH   8   9
ENDBRANCH   1   8
TORSDOF 9
ENDMDL
MODEL 12
REMARK VINA RESULT:    -4.188      2.346      3.038
REMARK INTER + INTRA:          -6.870
REMARK INTER:                  -6.410
REMARK INTRA:                  -0.461
REMARK UNBOUND:                -0.602
REMARK SMILES CCCCCCCCCC(=O)O
REMARK SMILES IDX 7 1 8 2 9 3 10 4 11 5 12 6 6 8 5 9 4 10 3 11 2 12 1 13
REMARK H PARENT 12 7
REMARK INDEX MAP 5 1 4 2 3 3 1 4 2 5 12 6 32 7 6 8 7 9 8 10 9 11 10 12 11 13
ROOT
ATOM      1  C   UNL     1      47.413  37.032  29.237  1.00  0.00     0.001 C 
ENDROOT
BRANCH   1   2
ATOM      2  C   UNL     1      47.935  35.802  29.996  1.00  0.00     0.012 C 
BRANCH   2   3
ATOM      3  C   UNL     1      49.379  35.787  30.319  1.00  0.00     0.122 C 
BRANCH   3   4
ATOM      4  C   UNL     1      49.946  34.524  30.953  1.00  0.00     0.303 C 
ATOM      5  O   UNL     1      50.346  33.588  30.211  1.00  0.00    -0.252 OA
BRANCH   4   6
ATOM      6  O   UNL     1      50.025  34.461  32.206  1.00  0.00    -0.481 OA
ATOM      7  H   UNL     1      49.828  33.610  32.673  1.00  0.00     0.296 HD
ENDBRANCH   4   6
ENDBRANCH   3   4
ENDBRANCH   2   3
ENDBRANCH   1   2
BRANCH   1   8
ATOM      8  C   UNL     1      48.298  37.478  28.148  1.00  0.00     0.000 C 
BRANCH   8   9
ATOM      9  C   UNL     1      47.809  37.838  26.868  1.00  0.00     0.000 C 
BRANCH   9  10
ATOM     10  C   UNL     1      47.302  36.854  25.894  1.00  0.00    -0.000 C 
BRANCH  10  11
ATOM     11  C   UNL     1      47.707  35.478  26.171  1.00  0.00    -0.000 C 
BRANCH  11  12
ATOM     12  C   UNL     1      46.881  34.405  25.831  1.00  0.00    -0.003 C 
ATOM     13  C   UNL     1      45.903  34.484  24.779  1.00  0.00     0.004 C 
ENDBRANCH  11  12
ENDBRANCH  10  11
ENDBRANCH   9  10
ENDBRANCH   8   9
ENDBRANCH   1   8
TORSDOF 9
ENDMDL
MODEL 13
REMARK VINA RESULT:    -4.151      6.649      9.155
REMARK INTER + INTRA:          -6.816
REMARK INTER:                  -6.302
REMARK INTRA:                  -0.515
REMARK UNBOUND:                -0.602
REMARK SMILES CCCCCCCCCC(=O)O
REMARK SMILES IDX 7 1 8 2 9 3 10 4 11 5 12 6 6 8 5 9 4 10 3 11 2 12 1 13
REMARK H PARENT 12 7
REMARK INDEX MAP 5 1 4 2 3 3 1 4 2 5 12 6 32 7 6 8 7 9 8 10 9 11 10 12 11 13
ROOT
ATOM      1  C   UNL     1      46.971  30.339  34.244  1.00  0.00     0.001 C 
ENDROOT
BRANCH   1   2
ATOM      2  C   UNL     1      46.685  31.780  34.694  1.00  0.00     0.012 C 
BRANCH   2   3
ATOM      3  C   UNL     1      45.379  32.351  34.296  1.00  0.00     0.122 C 
BRANCH   3   4
ATOM      4  C   UNL     1      45.325  33.842  33.990  1.00  0.00     0.303 C 
ATOM      5  O   UNL     1      45.825  34.269  32.916  1.00  0.00    -0.252 OA
BRANCH   4   6
ATOM      6  O   UNL     1      44.756  34.606  34.811  1.00  0.00    -0.481 OA
ATOM      7  H   UNL     1      43.785  34.513  34.982  1.00  0.00     0.296 HD
ENDBRANCH   4   6
ENDBRANCH   3   4
ENDBRANCH   2   3
ENDBRANCH   1   2
BRANCH   1   8
ATOM      8  C   UNL     1      48.096  29.707  34.955  1.00  0.00     0.000 C 
BRANCH   8   9
ATOM      9  C   UNL     1      47.956  28.499  35.682  1.00  0.00     0.000 C 
BRANCH   9  10
ATOM     10  C   UNL     1      48.068  27.168  35.059  1.00  0.00    -0.000 C 
BRANCH  10  11
ATOM     11  C   UNL     1      46.785  26.519  34.802  1.00  0.00    -0.000 C 
BRANCH  11  12
ATOM     12  C   UNL     1      46.339  26.303  33.497  1.00  0.00    -0.003 C 
ATOM     13  C   UNL     1      45.523  27.254  32.790  1.00  0.00     0.004 C 
ENDBRANCH  11  12
ENDBRANCH  10  11
ENDBRANCH   9  10
ENDBRANCH   8   9
ENDBRANCH   1   8
TORSDOF 9
ENDMDL
MODEL 14
REMARK VINA RESULT:    -4.147      1.045      2.121
REMARK INTER + INTRA:          -6.810
REMARK INTER:                  -6.264
REMARK INTRA:                  -0.546
REMARK UNBOUND:                -0.602
REMARK SMILES CCCCCCCCCC(=O)O
REMARK SMILES IDX 7 1 8 2 9 3 10 4 11 5 12 6 6 8 5 9 4 10 3 11 2 12 1 13
REMARK H PARENT 12 7
REMARK INDEX MAP 5 1 4 2 3 3 1 4 2 5 12 6 32 7 6 8 7 9 8 10 9 11 10 12 11 13
ROOT
ATOM      1  C   UNL     1      48.591  34.220  31.264  1.00  0.00     0.001 C 
ENDROOT
BRANCH   1   2
ATOM      2  C   UNL     1      48.305  35.255  32.363  1.00  0.00     0.012 C 
BRANCH   2   3
ATOM      3  C   UNL     1      46.907  35.347  32.840  1.00  0.00     0.122 C 
BRANCH   3   4
ATOM      4  C   UNL     1      46.294  36.736  32.961  1.00  0.00     0.303 C 
ATOM      5  O   UNL     1      45.109  36.921  32.579  1.00  0.00    -0.252 OA
BRANCH   4   6
ATOM      6  O   UNL     1      46.983  37.657  33.467  1.00  0.00    -0.481 OA
ATOM      7  H   UNL     1      46.568  38.295  34.100  1.00  0.00     0.296 HD
ENDBRANCH   4   6
ENDBRANCH   3   4
ENDBRANCH   2   3
ENDBRANCH   1   2
BRANCH   1   8
ATOM      8  C   UNL     1      49.072  34.810  30.003  1.00  0.00     0.000 C 
BRANCH   8   9
ATOM      9  C   UNL     1      48.856  36.169  29.666  1.00  0.00     0.000 C 
BRANCH   9  10
ATOM     10  C   UNL     1      47.674  36.634  28.917  1.00  0.00    -0.000 C 
BRANCH  10  11
ATOM     11  C   UNL     1      47.439  35.914  27.667  1.00  0.00    -0.000 C 
BRANCH  11  12
ATOM     12  C   UNL     1      47.541  36.563  26.436  1.00  0.00    -0.003 C 
ATOM     13  C   UNL     1      47.803  37.974  26.324  1.00  0.00     0.004 C 
ENDBRANCH  11  12
ENDBRANCH  10  11
ENDBRANCH   9  10
ENDBRANCH   8   9
ENDBRANCH   1   8
TORSDOF 9
ENDMDL
MODEL 15
REMARK VINA RESULT:    -4.105      3.918      5.890
REMARK INTER + INTRA:          -6.747
REMARK INTER:                  -6.096
REMARK INTRA:                  -0.651
REMARK UNBOUND:                -0.602
REMARK SMILES CCCCCCCCCC(=O)O
REMARK SMILES IDX 7 1 8 2 9 3 10 4 11 5 12 6 6 8 5 9 4 10 3 11 2 12 1 13
REMARK H PARENT 12 7
REMARK INDEX MAP 5 1 4 2 3 3 1 4 2 5 12 6 32 7 6 8 7 9 8 10 9 11 10 12 11 13
ROOT
ATOM      1  C   UNL     1      47.083  34.081  27.189  1.00  0.00     0.001 C 
ENDROOT
BRANCH   1   2
ATOM      2  C   UNL     1      47.636  34.927  26.033  1.00  0.00     0.012 C 
BRANCH   2   3
ATOM      3  C   UNL     1      46.884  36.155  25.691  1.00  0.00     0.122 C 
BRANCH   3   4
ATOM      4  C   UNL     1      47.347  37.463  26.319  1.00  0.00     0.303 C 
ATOM      5  O   UNL     1      47.156  37.658  27.548  1.00  0.00    -0.252 OA
BRANCH   4   6
ATOM      6  O   UNL     1      47.934  38.305  25.593  1.00  0.00    -0.481 OA
ATOM      7  H   UNL     1      47.408  38.957  25.065  1.00  0.00     0.296 HD
ENDBRANCH   4   6
ENDBRANCH   3   4
ENDBRANCH   2   3
ENDBRANCH   1   2
BRANCH   1   8
ATOM      8  C   UNL     1      46.951  32.649  26.868  1.00  0.00     0.000 C 
BRANCH   8   9
ATOM      9  C   UNL     1      47.313  32.115  25.607  1.00  0.00     0.000 C 
BRANCH   9  10
ATOM     10  C   UNL     1      48.532  31.314  25.393  1.00  0.00    -0.000 C 
BRANCH  10  11
ATOM     11  C   UNL     1      49.563  31.995  24.612  1.00  0.00    -0.000 C 
BRANCH  11  12
ATOM     12  C   UNL     1      50.481  32.848  25.226  1.00  0.00    -0.003 C 
ATOM     13  C   UNL     1      51.844  32.463  25.482  1.00  0.00     0.004 C 
ENDBRANCH  11  12
ENDBRANCH  10  11
ENDBRANCH   9  10
ENDBRANCH   8   9
ENDBRANCH   1   8
TORSDOF 9
ENDMDL
MODEL 16
REMARK VINA RESULT:    -4.041      5.006      6.573
REMARK INTER + INTRA:          -6.651
REMARK INTER:                  -6.392
REMARK INTRA:                  -0.259
REMARK UNBOUND:                -0.602
REMARK SMILES CCCCCCCCCC(=O)O
REMARK SMILES IDX 7 1 8 2 9 3 10 4 11 5 12 6 6 8 5 9 4 10 3 11 2 12 1 13
REMARK H PARENT 12 7
REMARK INDEX MAP 5 1 4 2 3 3 1 4 2 5 12 6 32 7 6 8 7 9 8 10 9 11 10 12 11 13
ROOT
ATOM      1  C   UNL     1      48.637  34.478  25.819  1.00  0.00     0.001 C 
ENDROOT
BRANCH   1   2
ATOM      2  C   UNL     1      47.288  35.087  26.231  1.00  0.00     0.012 C 
BRANCH   2   3
ATOM      3  C   UNL     1      46.998  36.451  25.737  1.00  0.00     0.122 C 
BRANCH   3   4
ATOM      4  C   UNL     1      47.788  37.604  26.343  1.00  0.00     0.303 C 
ATOM      5  O   UNL     1      47.988  37.627  27.586  1.00  0.00    -0.252 OA
BRANCH   4   6
ATOM      6  O   UNL     1      48.244  38.491  25.577  1.00  0.00    -0.481 OA
ATOM      7  H   UNL     1      47.691  38.831  24.829  1.00  0.00     0.296 HD
ENDBRANCH   4   6
ENDBRANCH   3   4
ENDBRANCH   2   3
ENDBRANCH   1   2
BRANCH   1   8
ATOM      8  C   UNL     1      48.522  33.153  25.185  1.00  0.00     0.000 C 
BRANCH   8   9
ATOM      9  C   UNL     1      49.651  32.352  24.885  1.00  0.00     0.000 C 
BRANCH   9  10
ATOM     10  C   UNL     1      50.957  32.521  25.547  1.00  0.00    -0.000 C 
BRANCH  10  11
ATOM     11  C   UNL     1      52.044  31.772  24.921  1.00  0.00    -0.000 C 
BRANCH  11  12
ATOM     12  C   UNL     1      53.363  31.930  25.349  1.00  0.00    -0.003 C 
ATOM     13  C   UNL     1      54.456  32.125  24.433  1.00  0.00     0.004 C 
ENDBRANCH  11  12
ENDBRANCH  10  11
ENDBRANCH   9  10
ENDBRANCH   8   9
ENDBRANCH   1   8
TORSDOF 9
ENDMDL
MODEL 17
REMARK VINA RESULT:    -4.026      5.255      6.738
REMARK INTER + INTRA:          -6.629
REMARK INTER:                  -6.058
REMARK INTRA:                  -0.570
REMARK UNBOUND:                -0.602
REMARK SMILES CCCCCCCCCC(=O)O
REMARK SMILES IDX 7 1 8 2 9 3 10 4 11 5 12 6 6 8 5 9 4 10 3 11 2 12 1 13
REMARK H PARENT 12 7
REMARK INDEX MAP 5 1 4 2 3 3 1 4 2 5 12 6 32 7 6 8 7 9 8 10 9 11 10 12 11 13
ROOT
ATOM      1  C   UNL     1      48.740  32.431  26.224  1.00  0.00     0.001 C 
ENDROOT
BRANCH   1   2
ATOM      2  C   UNL     1      49.711  33.004  25.181  1.00  0.00     0.012 C 
BRANCH   2   3
ATOM      3  C   UNL     1      50.960  32.245  24.951  1.00  0.00     0.122 C 
BRANCH   3   4
ATOM      4  C   UNL     1      52.135  32.520  25.881  1.00  0.00     0.303 C 
ATOM      5  O   UNL     1      52.181  31.947  27.001  1.00  0.00    -0.252 OA
BRANCH   4   6
ATOM      6  O   UNL     1      53.044  33.295  25.490  1.00  0.00    -0.481 OA
ATOM      7  H   UNL     1      53.959  32.948  25.340  1.00  0.00     0.296 HD
ENDBRANCH   4   6
ENDBRANCH   3   4
ENDBRANCH   2   3
ENDBRANCH   1   2
BRANCH   1   8
ATOM      8  C   UNL     1      47.398  33.038  26.183  1.00  0.00     0.000 C 
BRANCH   8   9
ATOM      9  C   UNL     1      46.923  33.762  25.062  1.00  0.00     0.000 C 
BRANCH   9  10
ATOM     10  C   UNL     1      46.423  35.146  25.151  1.00  0.00    -0.000 C 
BRANCH  10  11
ATOM     11  C   UNL     1      47.046  35.938  26.208  1.00  0.00    -0.000 C 
BRANCH  11  12
ATOM     12  C   UNL     1      48.038  36.874  25.913  1.00  0.00    -0.003 C 
ATOM     13  C   UNL     1      48.034  38.205  26.460  1.00  0.00     0.004 C 
ENDBRANCH  11  12
ENDBRANCH  10  11
ENDBRANCH   9  10
ENDBRANCH   8   9
ENDBRANCH   1   8
TORSDOF 9
ENDMDL
MODEL 18
REMARK VINA RESULT:    -4.020      1.873      2.721
REMARK INTER + INTRA:          -6.619
REMARK INTER:                  -6.380
REMARK INTRA:                  -0.240
REMARK UNBOUND:                -0.602
REMARK SMILES CCCCCCCCCC(=O)O
REMARK SMILES IDX 7 1 8 2 9 3 10 4 11 5 12 6 6 8 5 9 4 10 3 11 2 12 1 13
REMARK H PARENT 12 7
REMARK INDEX MAP 5 1 4 2 3 3 1 4 2 5 12 6 32 7 6 8 7 9 8 10 9 11 10 12 11 13
ROOT
ATOM      1  C   UNL     1      47.585  35.102  32.037  1.00  0.00     0.001 C 
ENDROOT
BRANCH   1   2
ATOM      2  C   UNL     1      47.407  33.581  31.931  1.00  0.00     0.012 C 
BRANCH   2   3
ATOM      3  C   UNL     1      46.338  32.980  32.760  1.00  0.00     0.122 C 
BRANCH   3   4
ATOM      4  C   UNL     1      45.576  33.900  33.704  1.00  0.00     0.303 C 
ATOM      5  O   UNL     1      44.577  34.535  33.274  1.00  0.00    -0.252 OA
BRANCH   4   6
ATOM      6  O   UNL     1      45.951  33.980  34.901  1.00  0.00    -0.481 OA
ATOM      7  H   UNL     1      45.586  33.355  35.577  1.00  0.00     0.296 HD
ENDBRANCH   4   6
ENDBRANCH   3   4
ENDBRANCH   2   3
ENDBRANCH   1   2
BRANCH   1   8
ATOM      8  C   UNL     1      48.456  35.673  30.994  1.00  0.00     0.000 C 
BRANCH   8   9
ATOM      9  C   UNL     1      48.035  35.826  29.650  1.00  0.00     0.000 C 
BRANCH   9  10
ATOM     10  C   UNL     1      47.512  37.094  29.110  1.00  0.00    -0.000 C 
BRANCH  10  11
ATOM     11  C   UNL     1      48.078  37.470  27.817  1.00  0.00    -0.000 C 
BRANCH  11  12
ATOM     12  C   UNL     1      47.284  37.507  26.670  1.00  0.00    -0.003 C 
ATOM     13  C   UNL     1      47.114  36.366  25.809  1.00  0.00     0.004 C 
ENDBRANCH  11  12
ENDBRANCH  10  11
ENDBRANCH   9  10
ENDBRANCH   8   9
ENDBRANCH   1   8
TORSDOF 9
ENDMDL
MODEL 19
REMARK VINA RESULT:    -3.987      6.629      9.235
REMARK INTER + INTRA:          -6.571
REMARK INTER:                  -5.800
REMARK INTRA:                  -0.771
REMARK UNBOUND:                -0.602
REMARK SMILES CCCCCCCCCC(=O)O
REMARK SMILES IDX 7 1 8 2 9 3 10 4 11 5 12 6 6 8 5 9 4 10 3 11 2 12 1 13
REMARK H PARENT 12 7
REMARK INDEX MAP 5 1 4 2 3 3 1 4 2 5 12 6 32 7 6 8 7 9 8 10 9 11 10 12 11 13
ROOT
ATOM      1  C   UNL     1      47.098  30.206  33.034  1.00  0.00     0.001 C 
ENDROOT
BRANCH   1   2
ATOM      2  C   UNL     1      46.433  30.968  34.190  1.00  0.00     0.012 C 
BRANCH   2   3
ATOM      3  C   UNL     1      45.285  31.832  33.839  1.00  0.00     0.122 C 
BRANCH   3   4
ATOM      4  C   UNL     1      45.428  33.329  34.084  1.00  0.00     0.303 C 
ATOM      5  O   UNL     1      44.800  34.137  33.351  1.00  0.00    -0.252 OA
BRANCH   4   6
ATOM      6  O   UNL     1      46.153  33.717  35.036  1.00  0.00    -0.481 OA
ATOM      7  H   UNL     1      46.945  33.186  35.303  1.00  0.00     0.296 HD
ENDBRANCH   4   6
ENDBRANCH   3   4
ENDBRANCH   2   3
ENDBRANCH   1   2
BRANCH   1   8
ATOM      8  C   UNL     1      46.248  29.155  32.447  1.00  0.00     0.000 C 
BRANCH   8   9
ATOM      9  C   UNL     1      46.038  27.904  33.078  1.00  0.00     0.000 C 
BRANCH   9  10
ATOM     10  C   UNL     1      47.140  27.021  33.500  1.00  0.00    -0.000 C 
BRANCH  10  11
ATOM     11  C   UNL     1      47.378  27.011  34.942  1.00  0.00    -0.000 C 
BRANCH  11  12
ATOM     12  C   UNL     1      48.438  27.729  35.499  1.00  0.00    -0.003 C 
ATOM     13  C   UNL     1      48.271  28.604  36.628  1.00  0.00     0.004 C 
ENDBRANCH  11  12
ENDBRANCH  10  11
ENDBRANCH   9  10
ENDBRANCH   8   9
ENDBRANCH   1   8
TORSDOF 9
ENDMDL
MODEL 20
REMARK VINA RESULT:    -3.977      3.460      5.029
REMARK INTER + INTRA:          -6.555
REMARK INTER:                  -5.842
REMARK INTRA:                  -0.714
REMARK UNBOUND:                -0.602
REMARK SMILES CCCCCCCCCC(=O)O
REMARK SMILES IDX 7 1 8 2 9 3 10 4 11 5 12 6 6 8 5 9 4 10 3 11 2 12 1 13
REMARK H PARENT 12 7
REMARK INDEX MAP 5 1 4 2 3 3 1 4 2 5 12 6 32 7 6 8 7 9 8 10 9 11 10 12 11 13
ROOT
ATOM      1  C   UNL     1      47.587  37.178  28.976  1.00  0.00     0.001 C 
ENDROOT
BRANCH   1   2
ATOM      2  C   UNL     1      48.050  37.804  27.652  1.00  0.00     0.012 C 
BRANCH   2   3
ATOM      3  C   UNL     1      47.188  37.571  26.472  1.00  0.00     0.122 C 
BRANCH   3   4
ATOM      4  C   UNL     1      47.397  36.281  25.690  1.00  0.00     0.303 C 
ATOM      5  O   UNL     1      48.435  35.598  25.893  1.00  0.00    -0.252 OA
BRANCH   4   6
ATOM      6  O   UNL     1      46.507  35.917  24.879  1.00  0.00    -0.481 OA
ATOM      7  H   UNL     1      46.356  36.432  24.047  1.00  0.00     0.296 HD
ENDBRANCH   4   6
ENDBRANCH   3   4
ENDBRANCH   2   3
ENDBRANCH   1   2
BRANCH   1   8
ATOM      8  C   UNL     1      48.504  36.150  29.500  1.00  0.00     0.000 C 
BRANCH   8   9
ATOM      9  C   UNL     1      48.058  34.869  29.907  1.00  0.00     0.000 C 
BRANCH   9  10
ATOM     10  C   UNL     1      48.143  33.676  29.044  1.00  0.00    -0.000 C 
BRANCH  10  11
ATOM     11  C   UNL     1      47.008  33.514  28.138  1.00  0.00    -0.000 C 
BRANCH  11  12
ATOM     12  C   UNL     1      46.942  32.434  27.257  1.00  0.00    -0.003 C 
ATOM     13  C   UNL     1      46.563  32.583  25.877  1.00  0.00     0.004 C 
ENDBRANCH  11  12
ENDBRANCH  10  11
ENDBRANCH   9  10
ENDBRANCH   8   9
ENDBRANCH   1   8
TORSDOF 9
ENDMDL
