MODEL 1
REMARK VINA RESULT:    -4.971      0.000      0.000
REMARK INTER + INTRA:          -7.967
REMARK INTER:                  -7.441
REMARK INTRA:                  -0.526
REMARK UNBOUND:                -0.526
REMARK SMILES CCCCCCCCCC(=O)O
REMARK SMILES IDX 7 1 8 2 9 3 10 4 11 5 12 6 6 8 5 9 4 10 3 11 2 12 1 13
REMARK H PARENT 12 7
REMARK INDEX MAP 5 1 4 2 3 3 1 4 2 5 12 6 32 7 6 8 7 9 8 10 9 11 10 12 11 13
ROOT
ATOM      1  C   UNL     1      48.540  36.329  29.762  1.00  0.00     0.001 C 
ENDROOT
BRANCH   1   2
ATOM      2  C   UNL     1      47.826  35.354  30.710  1.00  0.00     0.012 C 
BRANCH   2   3
ATOM      3  C   UNL     1      47.898  35.664  32.155  1.00  0.00     0.122 C 
BRANCH   3   4
ATOM      4  C   UNL     1      46.836  36.591  32.731  1.00  0.00     0.303 C 
ATOM      5  O   UNL     1      47.186  37.539  33.481  1.00  0.00    -0.252 OA
BRANCH   4   6
ATOM      6  O   UNL     1      45.633  36.399  32.417  1.00  0.00    -0.481 OA
ATOM      7  H   UNL     1      44.941  36.335  33.122  1.00  0.00     0.296 HD
ENDBRANCH   4   6
ENDBRANCH   3   4
ENDBRANCH   2   3
ENDBRANCH   1   2
BRANCH   1   8
ATOM      8  C   UNL     1      47.625  37.089  28.892  1.00  0.00     0.000 C 
BRANCH   8   9
ATOM      9  C   UNL     1      48.056  37.717  27.697  1.00  0.00     0.000 C 
BRANCH   9  10
ATOM     10  C   UNL     1      47.559  37.335  26.363  1.00  0.00    -0.000 C 
BRANCH  10  11
ATOM     11  C   UNL     1      47.398  35.895  26.176  1.00  0.00    -0.000 C 
BRANCH  11  12
ATOM     12  C   UNL     1      46.694  35.387  25.083  1.00  0.00    -0.003 C 
ATOM     13  C   UNL     1      46.004  34.125  25.125  1.00  0.00     0.004 C 
ENDBRANCH  11  12
ENDBRANCH  10  11
ENDBRANCH   9  10
ENDBRANCH   8   9
ENDBRANCH   1   8
TORSDOF 9
ENDMDL
MODEL 2
REMARK VINA RESULT:    -4.848      2.477      3.362
REMARK INTER + INTRA:          -7.783
REMARK INTER:                  -6.499
REMARK INTRA:                  -1.284
REMARK UNBOUND:                -0.526
REMARK SMILES CCCCCCCCCC(=O)O
REMARK SMILES IDX 7 1 8 2 9 3 10 4 11 5 12 6 6 8 5 9 4 10 3 11 2 12 1 13
REMARK H PARENT 12 7
REMARK INDEX MAP 5 1 4 2 3 3 1 4 2 5 12 6 32 7 6 8 7 9 8 10 9 11 10 12 11 13
ROOT
ATOM      1  C   UNL     1      48.197  37.786  27.869  1.00  0.00     0.001 C 
ENDROOT
BRANCH   1   2
ATOM      2  C   UNL     1      47.565  37.128  29.105  1.00  0.00     0.012 C 
BRANCH   2   3
ATOM      3  C   UNL     1      48.388  36.125  29.815  1.00  0.00     0.122 C 
BRANCH   3   4
ATOM      4  C   UNL     1      48.291  34.677  29.351  1.00  0.00     0.303 C 
ATOM      5  O   UNL     1      47.158  34.141  29.235  1.00  0.00    -0.252 OA
BRANCH   4   6
ATOM      6  O   UNL     1      49.352  34.063  29.068  1.00  0.00    -0.481 OA
ATOM      7  H   UNL     1      50.147  34.565  28.758  1.00  0.00     0.296 HD
ENDBRANCH   4   6
ENDBRANCH   3   4
ENDBRANCH   2   3
ENDBRANCH   1   2
BRANCH   1   8
ATOM      8  C   UNL     1      47.459  37.534  26.619  1.00  0.00     0.000 C 
BRANCH   8   9
ATOM      9  C   UNL     1      47.712  36.407  25.799  1.00  0.00     0.000 C 
BRANCH   9  10
ATOM     10  C   UNL     1      46.733  35.324  25.594  1.00  0.00    -0.000 C 
BRANCH  10  11
ATOM     11  C   UNL     1      47.326  33.992  25.505  1.00  0.00    -0.000 C 
BRANCH  11  12
ATOM     12  C   UNL     1      48.705  33.812  25.619  1.00  0.00    -0.003 C 
ATOM     13  C   UNL     1      49.334  32.528  25.461  1.00  0.00     0.004 C 
ENDBRANCH  11  12
ENDBRANCH  10  11
ENDBRANCH   9  10
ENDBRANCH   8   9
ENDBRANCH   1   8
TORSDOF 9
ENDMDL
MODEL 3
REMARK VINA RESULT:    -4.793      2.206      2.925
REMARK INTER + INTRA:          -7.700
REMARK INTER:                  -6.739
REMARK INTRA:                  -0.961
REMARK UNBOUND:                -0.526
REMARK SMILES CCCCCCCCCC(=O)O
REMARK SMILES IDX 7 1 8 2 9 3 10 4 11 5 12 6 6 8 5 9 4 10 3 11 2 12 1 13
REMARK H PARENT 12 7
REMARK INDEX MAP 5 1 4 2 3 3 1 4 2 5 12 6 32 7 6 8 7 9 8 10 9 11 10 12 11 13
ROOT
ATOM      1  C   UNL     1      48.218  37.662  28.042  1.00  0.00     0.001 C 
ENDROOT
BRANCH   1   2
ATOM      2  C   UNL     1      47.530  36.889  29.177  1.00  0.00     0.012 C 
BRANCH   2   3
ATOM      3  C   UNL     1      48.168  35.622  29.597  1.00  0.00     0.122 C 
BRANCH   3   4
ATOM      4  C   UNL     1      49.294  35.705  30.619  1.00  0.00     0.303 C 
ATOM      5  O   UNL     1      49.104  36.325  31.698  1.00  0.00    -0.252 OA
BRANCH   4   6
ATOM      6  O   UNL     1      50.381  35.124  30.366  1.00  0.00    -0.481 OA
ATOM      7  H   UNL     1      50.388  34.157  30.158  1.00  0.00     0.296 HD
ENDBRANCH   4   6
ENDBRANCH   3   4
ENDBRANCH   2   3
ENDBRANCH   1   2
BRANCH   1   8
ATOM      8  C   UNL     1      47.501  37.595  26.756  1.00  0.00     0.000 C 
BRANCH   8   9
ATOM      9  C   UNL     1      47.722  36.561  25.814  1.00  0.00     0.000 C 
BRANCH   9  10
ATOM     10  C   UNL     1      46.738  35.497  25.541  1.00  0.00    -0.000 C 
BRANCH  10  11
ATOM     11  C   UNL     1      47.307  34.151  25.514  1.00  0.00    -0.000 C 
BRANCH  11  12
ATOM     12  C   UNL     1      48.553  33.888  26.085  1.00  0.00    -0.003 C 
ATOM     13  C   UNL     1      49.506  32.993  25.484  1.00  0.00     0.004 C 
ENDBRANCH  11  12
ENDBRANCH  10  11
ENDBRANCH   9  10
ENDBRANCH   8   9
ENDBRANCH   1   8
TORSDOF 9
ENDMDL
MODEL 4
REMARK VINA RESULT:    -4.740      2.479      3.623
REMARK INTER + INTRA:          -7.621
REMARK INTER:                  -6.751
REMARK INTRA:                  -0.869
REMARK UNBOUND:                -0.526
REMARK SMILES CCCCCCCCCC(=O)O
REMARK SMILES IDX 7 1 8 2 9 3 10 4 11 5 12 6 6 8 5 9 4 10 3 11 2 12 1 13
REMARK H PARENT 12 7
REMARK INDEX MAP 5 1 4 2 3 3 1 4 2 5 12 6 32 7 6 8 7 9 8 10 9 11 10 12 11 13
ROOT
ATOM      1  C   UNL     1      47.501  37.676  26.662  1.00  0.00     0.001 C 
ENDROOT
BRANCH   1   2
ATOM      2  C   UNL     1      48.229  37.692  28.014  1.00  0.00     0.012 C 
BRANCH   2   3
ATOM      3  C   UNL     1      47.545  37.024  29.143  1.00  0.00     0.122 C 
BRANCH   3   4
ATOM      4  C   UNL     1      48.027  35.634  29.537  1.00  0.00     0.303 C 
ATOM      5  O   UNL     1      49.223  35.476  29.897  1.00  0.00    -0.252 OA
BRANCH   4   6
ATOM      6  O   UNL     1      47.204  34.683  29.519  1.00  0.00    -0.481 OA
ATOM      7  H   UNL     1      47.058  34.139  30.333  1.00  0.00     0.296 HD
ENDBRANCH   4   6
ENDBRANCH   3   4
ENDBRANCH   2   3
ENDBRANCH   1   2
BRANCH   1   8
ATOM      8  C   UNL     1      47.754  36.464  25.864  1.00  0.00     0.000 C 
BRANCH   8   9
ATOM      9  C   UNL     1      46.734  35.536  25.542  1.00  0.00     0.000 C 
BRANCH   9  10
ATOM     10  C   UNL     1      47.002  34.122  25.225  1.00  0.00    -0.000 C 
BRANCH  10  11
ATOM     11  C   UNL     1      48.171  33.569  25.907  1.00  0.00    -0.000 C 
BRANCH  11  12
ATOM     12  C   UNL     1      49.030  32.685  25.254  1.00  0.00    -0.003 C 
ATOM     13  C   UNL     1      50.457  32.715  25.437  1.00  0.00     0.004 C 
ENDBRANCH  11  12
ENDBRANCH  10  11
ENDBRANCH   9  10
ENDBRANCH   8   9
ENDBRANCH   1   8
TORSDOF 9
ENDMDL
MODEL 5
REMARK VINA RESULT:    -4.729      4.475      6.238
REMARK INTER + INTRA:          -7.604
REMARK INTER:                  -6.817
REMARK INTRA:                  -0.787
REMARK UNBOUND:                -0.526
REMARK SMILES CCCCCCCCCC(=O)O
REMARK SMILES IDX 7 1 8 2 9 3 10 4 11 5 12 6 6 8 5 9 4 10 3 11 2 12 1 13
REMARK H PARENT 12 7
REMARK INDEX MAP 5 1 4 2 3 3 1 4 2 5 12 6 32 7 6 8 7 9 8 10 9 11 10 12 11 13
ROOT
ATOM      1  C   UNL     1      47.282  33.919  25.450  1.00  0.00     0.001 C 
ENDROOT
BRANCH   1   2
ATOM      2  C   UNL     1      48.729  33.706  25.920  1.00  0.00     0.012 C 
BRANCH   2   3
ATOM      3  C   UNL     1      49.475  32.597  25.287  1.00  0.00     0.122 C 
BRANCH   3   4
ATOM      4  C   UNL     1      50.932  32.406  25.690  1.00  0.00     0.303 C 
ATOM      5  O   UNL     1      51.259  32.537  26.898  1.00  0.00    -0.252 OA
BRANCH   4   6
ATOM      6  O   UNL     1      51.767  32.096  24.802  1.00  0.00    -0.481 OA
ATOM      7  H   UNL     1      51.505  32.115  23.848  1.00  0.00     0.296 HD
ENDBRANCH   4   6
ENDBRANCH   3   4
ENDBRANCH   2   3
ENDBRANCH   1   2
BRANCH   1   8
ATOM      8  C   UNL     1      46.803  35.303  25.606  1.00  0.00     0.000 C 
BRANCH   8   9
ATOM      9  C   UNL     1      47.685  36.403  25.741  1.00  0.00     0.000 C 
BRANCH   9  10
ATOM     10  C   UNL     1      47.387  37.575  26.586  1.00  0.00    -0.000 C 
BRANCH  10  11
ATOM     11  C   UNL     1      48.158  37.626  27.826  1.00  0.00    -0.000 C 
BRANCH  11  12
ATOM     12  C   UNL     1      47.697  36.999  28.984  1.00  0.00    -0.003 C 
ATOM     13  C   UNL     1      48.273  35.779  29.485  1.00  0.00     0.004 C 
ENDBRANCH  11  12
ENDBRANCH  10  11
ENDBRANCH   9  10
ENDBRANCH   8   9
ENDBRANCH   1   8
TORSDOF 9
ENDMDL
MODEL 6
REMARK VINA RESULT:    -4.685      1.478      2.495
REMARK INTER + INTRA:          -7.538
REMARK INTER:                  -6.473
REMARK INTRA:                  -1.066
REMARK UNBOUND:                -0.526
REMARK SMILES CCCCCCCCCC(=O)O
REMARK SMILES IDX 7 1 8 2 9 3 10 4 11 5 12 6 6 8 5 9 4 10 3 11 2 12 1 13
REMARK H PARENT 12 7
REMARK INDEX MAP 5 1 4 2 3 3 1 4 2 5 12 6 32 7 6 8 7 9 8 10 9 11 10 12 11 13
ROOT
ATOM      1  C   UNL     1      48.126  37.826  27.686  1.00  0.00     0.001 C 
ENDROOT
BRANCH   1   2
ATOM      2  C   UNL     1      47.516  36.952  28.793  1.00  0.00     0.012 C 
BRANCH   2   3
ATOM      3  C   UNL     1      48.468  36.224  29.661  1.00  0.00     0.122 C 
BRANCH   3   4
ATOM      4  C   UNL     1      47.987  35.817  31.048  1.00  0.00     0.303 C 
ATOM      5  O   UNL     1      48.509  36.351  32.062  1.00  0.00    -0.252 OA
BRANCH   4   6
ATOM      6  O   UNL     1      47.058  34.975  31.141  1.00  0.00    -0.481 OA
ATOM      7  H   UNL     1      46.635  34.800  32.019  1.00  0.00     0.296 HD
ENDBRANCH   4   6
ENDBRANCH   3   4
ENDBRANCH   2   3
ENDBRANCH   1   2
BRANCH   1   8
ATOM      8  C   UNL     1      47.699  37.448  26.327  1.00  0.00     0.000 C 
BRANCH   8   9
ATOM      9  C   UNL     1      47.773  36.117  25.849  1.00  0.00     0.000 C 
BRANCH   9  10
ATOM     10  C   UNL     1      46.638  35.428  25.207  1.00  0.00    -0.000 C 
BRANCH  10  11
ATOM     11  C   UNL     1      46.357  34.103  25.756  1.00  0.00    -0.000 C 
BRANCH  11  12
ATOM     12  C   UNL     1      47.170  33.549  26.744  1.00  0.00    -0.003 C 
ATOM     13  C   UNL     1      46.643  33.019  27.974  1.00  0.00     0.004 C 
ENDBRANCH  11  12
ENDBRANCH  10  11
ENDBRANCH   9  10
ENDBRANCH   8   9
ENDBRANCH   1   8
TORSDOF 9
ENDMDL
MODEL 7
REMARK VINA RESULT:    -4.655      4.246      6.070
REMARK INTER + INTRA:          -7.494
REMARK INTER:                  -6.460
REMARK INTRA:                  -1.034
REMARK UNBOUND:                -0.526
REMARK SMILES CCCCCCCCCC(=O)O
REMARK SMILES IDX 7 1 8 2 9 3 10 4 11 5 12 6 6 8 5 9 4 10 3 11 2 12 1 13
REMARK H PARENT 12 7
REMARK INDEX MAP 5 1 4 2 3 3 1 4 2 5 12 6 32 7 6 8 7 9 8 10 9 11 10 12 11 13
ROOT
ATOM      1  C   UNL     1      46.719  35.326  25.529  1.00  0.00     0.001 C 
ENDROOT
BRANCH   1   2
ATOM      2  C   UNL     1      47.324  33.915  25.487  1.00  0.00     0.012 C 
BRANCH   2   3
ATOM      3  C   UNL     1      48.727  33.782  25.937  1.00  0.00     0.122 C 
BRANCH   3   4
ATOM      4  C   UNL     1      49.602  32.757  25.228  1.00  0.00     0.303 C 
ATOM      5  O   UNL     1      50.854  32.873  25.281  1.00  0.00    -0.252 OA
BRANCH   4   6
ATOM      6  O   UNL     1      49.045  31.801  24.629  1.00  0.00    -0.481 OA
ATOM      7  H   UNL     1      48.685  31.036  25.144  1.00  0.00     0.296 HD
ENDBRANCH   4   6
ENDBRANCH   3   4
ENDBRANCH   2   3
ENDBRANCH   1   2
BRANCH   1   8
ATOM      8  C   UNL     1      47.709  36.391  25.767  1.00  0.00     0.000 C 
BRANCH   8   9
ATOM      9  C   UNL     1      47.435  37.518  26.580  1.00  0.00     0.000 C 
BRANCH   9  10
ATOM     10  C   UNL     1      48.169  37.811  27.824  1.00  0.00    -0.000 C 
BRANCH  10  11
ATOM     11  C   UNL     1      47.633  37.137  29.005  1.00  0.00    -0.000 C 
BRANCH  11  12
ATOM     12  C   UNL     1      48.365  36.146  29.660  1.00  0.00    -0.003 C 
ATOM     13  C   UNL     1      48.030  34.749  29.568  1.00  0.00     0.004 C 
ENDBRANCH  11  12
ENDBRANCH  10  11
ENDBRANCH   9  10
ENDBRANCH   8   9
ENDBRANCH   1   8
TORSDOF 9
ENDMDL
MODEL 8
REMARK VINA RESULT:    -4.581      1.662      2.471
REMARK INTER + INTRA:          -7.383
REMARK INTER:                  -7.018
REMARK INTRA:                  -0.365
REMARK UNBOUND:                -0.526
REMARK SMILES CCCCCCCCCC(=O)O
REMARK SMILES IDX 7 1 8 2 9 3 10 4 11 5 12 6 6 8 5 9 4 10 3 11 2 12 1 13
REMARK H PARENT 12 7
REMARK INDEX MAP 5 1 4 2 3 3 1 4 2 5 12 6 32 7 6 8 7 9 8 10 9 11 10 12 11 13
ROOT
ATOM      1  C   UNL     1      47.344  36.211  31.651  1.00  0.00     0.001 C 
ENDROOT
BRANCH   1   2
ATOM      2  C   UNL     1      47.593  35.297  32.859  1.00  0.00     0.012 C 
BRANCH   2   3
ATOM      3  C   UNL     1      46.664  34.158  33.031  1.00  0.00     0.122 C 
BRANCH   3   4
ATOM      4  C   UNL     1      45.327  34.434  33.705  1.00  0.00     0.303 C 
ATOM      5  O   UNL     1      44.308  34.635  32.994  1.00  0.00    -0.252 OA
BRANCH   4   6
ATOM      6  O   UNL     1      45.272  34.426  34.962  1.00  0.00    -0.481 OA
ATOM      7  H   UNL     1      44.658  33.803  35.426  1.00  0.00     0.296 HD
ENDBRANCH   4   6
ENDBRANCH   3   4
ENDBRANCH   2   3
ENDBRANCH   1   2
BRANCH   1   8
ATOM      8  C   UNL     1      48.163  35.876  30.473  1.00  0.00     0.000 C 
BRANCH   8   9
ATOM      9  C   UNL     1      47.739  36.144  29.148  1.00  0.00     0.000 C 
BRANCH   9  10
ATOM     10  C   UNL     1      48.073  37.389  28.432  1.00  0.00    -0.000 C 
BRANCH  10  11
ATOM     11  C   UNL     1      47.506  37.474  27.088  1.00  0.00    -0.000 C 
BRANCH  11  12
ATOM     12  C   UNL     1      47.851  36.546  26.104  1.00  0.00    -0.003 C 
ATOM     13  C   UNL     1      46.914  35.584  25.586  1.00  0.00     0.004 C 
ENDBRANCH  11  12
ENDBRANCH  10  11
ENDBRANCH   9  10
ENDBRANCH   8   9
ENDBRANCH   1   8
TORSDOF 9
ENDMDL
MODEL 9
REMARK VINA RESULT:    -4.556      2.503      4.936
REMARK INTER + INTRA:          -7.345
REMARK INTER:                  -6.198
REMARK INTRA:                  -1.148
REMARK UNBOUND:                -0.526
REMARK SMILES CCCCCCCCCC(=O)O
REMARK SMILES IDX 7 1 8 2 9 3 10 4 11 5 12 6 6 8 5 9 4 10 3 11 2 12 1 13
REMARK H PARENT 12 7
REMARK INDEX MAP 5 1 4 2 3 3 1 4 2 5 12 6 32 7 6 8 7 9 8 10 9 11 10 12 11 13
ROOT
ATOM      1  C   UNL     1      46.755  35.507  25.448  1.00  0.00     0.001 C 
ENDROOT
BRANCH   1   2
ATOM      2  C   UNL     1      47.235  34.053  25.572  1.00  0.00     0.012 C 
BRANCH   2   3
ATOM      3  C   UNL     1      46.485  33.185  26.506  1.00  0.00     0.122 C 
BRANCH   3   4
ATOM      4  C   UNL     1      46.958  33.132  27.953  1.00  0.00     0.303 C 
ATOM      5  O   UNL     1      46.106  33.126  28.880  1.00  0.00    -0.252 OA
BRANCH   4   6
ATOM      6  O   UNL     1      48.193  33.069  28.182  1.00  0.00    -0.481 OA
ATOM      7  H   UNL     1      48.530  33.154  29.109  1.00  0.00     0.296 HD
ENDBRANCH   4   6
ENDBRANCH   3   4
ENDBRANCH   2   3
ENDBRANCH   1   2
BRANCH   1   8
ATOM      8  C   UNL     1      47.795  36.504  25.757  1.00  0.00     0.000 C 
BRANCH   8   9
ATOM      9  C   UNL     1      47.553  37.624  26.590  1.00  0.00     0.000 C 
BRANCH   9  10
ATOM     10  C   UNL     1      48.194  37.802  27.905  1.00  0.00    -0.000 C 
BRANCH  10  11
ATOM     11  C   UNL     1      47.621  36.976  28.965  1.00  0.00    -0.000 C 
BRANCH  11  12
ATOM     12  C   UNL     1      48.436  36.207  29.796  1.00  0.00    -0.003 C 
ATOM     13  C   UNL     1      47.931  35.515  30.952  1.00  0.00     0.004 C 
ENDBRANCH  11  12
ENDBRANCH  10  11
ENDBRANCH   9  10
ENDBRANCH   8   9
ENDBRANCH   1   8
TORSDOF 9
ENDMDL
MODEL 10
REMARK VINA RESULT:    -4.515      2.815      4.858
REMARK INTER + INTRA:          -7.285
REMARK INTER:                  -6.112
REMARK INTRA:                  -1.173
REMARK UNBOUND:                -0.526
REMARK SMILES CCCCCCCCCC(=O)O
REMARK SMILES IDX 7 1 8 2 9 3 10 4 11 5 12 6 6 8 5 9 4 10 3 11 2 12 1 13
REMARK H PARENT 12 7
REMARK INDEX MAP 5 1 4 2 3 3 1 4 2 5 12 6 32 7 6 8 7 9 8 10 9 11 10 12 11 13
ROOT
ATOM      1  C   UNL     1      46.784  34.169  25.684  1.00  0.00     0.001 C 
ENDROOT
BRANCH   1   2
ATOM      2  C   UNL     1      48.107  33.597  26.213  1.00  0.00     0.012 C 
BRANCH   2   3
ATOM      3  C   UNL     1      48.015  32.674  27.366  1.00  0.00     0.122 C 
BRANCH   3   4
ATOM      4  C   UNL     1      46.687  32.603  28.109  1.00  0.00     0.303 C 
ATOM      5  O   UNL     1      45.880  31.674  27.843  1.00  0.00    -0.252 OA
BRANCH   4   6
ATOM      6  O   UNL     1      46.444  33.465  28.992  1.00  0.00    -0.481 OA
ATOM      7  H   UNL     1      47.033  33.541  29.785  1.00  0.00     0.296 HD
ENDBRANCH   4   6
ENDBRANCH   3   4
ENDBRANCH   2   3
ENDBRANCH   1   2
BRANCH   1   8
ATOM      8  C   UNL     1      46.819  35.622  25.442  1.00  0.00     0.000 C 
BRANCH   8   9
ATOM      9  C   UNL     1      47.867  36.448  25.917  1.00  0.00     0.000 C 
BRANCH   9  10
ATOM     10  C   UNL     1      47.632  37.715  26.634  1.00  0.00    -0.000 C 
BRANCH  10  11
ATOM     11  C   UNL     1      48.164  37.738  27.995  1.00  0.00    -0.000 C 
BRANCH  11  12
ATOM     12  C   UNL     1      47.663  36.881  28.975  1.00  0.00    -0.003 C 
ATOM     13  C   UNL     1      48.515  36.072  29.805  1.00  0.00     0.004 C 
ENDBRANCH  11  12
ENDBRANCH  10  11
ENDBRANCH   9  10
ENDBRANCH   8   9
ENDBRANCH   1   8
TORSDOF 9
ENDMDL
MODEL 11
REMARK VINA RESULT:    -4.384      2.694      3.223
REMARK INTER + INTRA:          -7.088
REMARK INTER:                  -5.973
REMARK INTRA:                  -1.115
REMARK UNBOUND:                -0.526
REMARK SMILES CCCCCCCCCC(=O)O
REMARK SMILES IDX 7 1 8 2 9 3 10 4 11 5 12 6 6 8 5 9 4 10 3 11 2 12 1 13
REMARK H PARENT 12 7
REMARK INDEX MAP 5 1 4 2 3 3 1 4 2 5 12 6 32 7 6 8 7 9 8 10 9 11 10 12 11 13
ROOT
ATOM      1  C   UNL     1      47.584  37.125  29.216  1.00  0.00     0.001 C 
ENDROOT
BRANCH   1   2
ATOM      2  C   UNL     1      48.392  35.999  29.877  1.00  0.00     0.012 C 
BRANCH   2   3
ATOM      3  C   UNL     1      48.175  34.632  29.352  1.00  0.00     0.122 C 
BRANCH   3   4
ATOM      4  C   UNL     1      49.227  33.578  29.674  1.00  0.00     0.303 C 
ATOM      5  O   UNL     1      50.038  33.223  28.779  1.00  0.00    -0.252 OA
BRANCH   4   6
ATOM      6  O   UNL     1      49.273  33.109  30.840  1.00  0.00    -0.481 OA
ATOM      7  H   UNL     1      50.047  33.310  31.423  1.00  0.00     0.296 HD
ENDBRANCH   4   6
ENDBRANCH   3   4
ENDBRANCH   2   3
ENDBRANCH   1   2
BRANCH   1   8
ATOM      8  C   UNL     1      48.210  37.672  27.999  1.00  0.00     0.000 C 
BRANCH   8   9
ATOM      9  C   UNL     1      47.610  37.566  26.721  1.00  0.00     0.000 C 
BRANCH   9  10
ATOM     10  C   UNL     1      47.915  36.476  25.776  1.00  0.00    -0.000 C 
BRANCH  10  11
ATOM     11  C   UNL     1      46.823  35.522  25.595  1.00  0.00    -0.000 C 
BRANCH  11  12
ATOM     12  C   UNL     1      47.068  34.149  25.561  1.00  0.00    -0.003 C 
ATOM     13  C   UNL     1      48.397  33.598  25.610  1.00  0.00     0.004 C 
ENDBRANCH  11  12
ENDBRANCH  10  11
ENDBRANCH   9  10
ENDBRANCH   8   9
ENDBRANCH   1   8
TORSDOF 9
ENDMDL
MODEL 12
REMARK VINA RESULT:    -4.367      2.435      4.160
REMARK INTER + INTRA:          -7.063
REMARK INTER:                  -6.303
REMARK INTRA:                  -0.761
REMARK UNBOUND:                -0.526
REMARK SMILES CCCCCCCCCC(=O)O
REMARK SMILES IDX 7 1 8 2 9 3 10 4 11 5 12 6 6 8 5 9 4 10 3 11 2 12 1 13
REMARK H PARENT 12 7
REMARK INDEX MAP 5 1 4 2 3 3 1 4 2 5 12 6 32 7 6 8 7 9 8 10 9 11 10 12 11 13
ROOT
ATOM      1  C   UNL     1      47.913  36.426  25.813  1.00  0.00     0.001 C 
ENDROOT
BRANCH   1   2
ATOM      2  C   UNL     1      47.457  37.558  26.746  1.00  0.00     0.012 C 
BRANCH   2   3
ATOM      3  C   UNL     1      48.203  37.714  28.014  1.00  0.00     0.122 C 
BRANCH   3   4
ATOM      4  C   UNL     1      47.765  36.864  29.199  1.00  0.00     0.303 C 
ATOM      5  O   UNL     1      47.951  35.619  29.167  1.00  0.00    -0.252 OA
BRANCH   4   6
ATOM      6  O   UNL     1      47.251  37.436  30.194  1.00  0.00    -0.481 OA
ATOM      7  H   UNL     1      46.454  37.046  30.633  1.00  0.00     0.296 HD
ENDBRANCH   4   6
ENDBRANCH   3   4
ENDBRANCH   2   3
ENDBRANCH   1   2
BRANCH   1   8
ATOM      8  C   UNL     1      46.854  35.452  25.498  1.00  0.00     0.000 C 
BRANCH   8   9
ATOM      9  C   UNL     1      46.754  34.198  26.149  1.00  0.00     0.000 C 
BRANCH   9  10
ATOM     10  C   UNL     1      46.811  32.911  25.430  1.00  0.00    -0.000 C 
BRANCH  10  11
ATOM     11  C   UNL     1      47.888  32.028  25.872  1.00  0.00    -0.000 C 
BRANCH  11  12
ATOM     12  C   UNL     1      49.082  31.937  25.156  1.00  0.00    -0.003 C 
ATOM     13  C   UNL     1      50.202  32.805  25.405  1.00  0.00     0.004 C 
ENDBRANCH  11  12
ENDBRANCH  10  11
ENDBRANCH   9  10
ENDBRANCH   8   9
ENDBRANCH   1   8
TORSDOF 9
ENDMDL
MODEL 13
REMARK VINA RESULT:    -4.257      5.358      6.960
REMARK INTER + INTRA:          -6.897
REMARK INTER:                  -6.371
REMARK INTRA:                  -0.527
REMARK UNBOUND:                -0.526
REMARK SMILES CCCCCCCCCC(=O)O
REMARK SMILES IDX 7 1 8 2 9 3 10 4 11 5 12 6 6 8 5 9 4 10 3 11 2 12 1 13
REMARK H PARENT 12 7
REMARK INDEX MAP 5 1 4 2 3 3 1 4 2 5 12 6 32 7 6 8 7 9 8 10 9 11 10 12 11 13
ROOT
ATOM      1  C   UNL     1      48.622  32.568  25.229  1.00  0.00     0.001 C 
ENDROOT
BRANCH   1   2
ATOM      2  C   UNL     1      50.096  32.921  25.479  1.00  0.00     0.012 C 
BRANCH   2   3
ATOM      3  C   UNL     1      51.098  31.914  25.065  1.00  0.00     0.122 C 
BRANCH   3   4
ATOM      4  C   UNL     1      52.548  32.156  25.464  1.00  0.00     0.303 C 
ATOM      5  O   UNL     1      53.468  31.841  24.666  1.00  0.00    -0.252 OA
BRANCH   4   6
ATOM      6  O   UNL     1      52.785  32.692  26.577  1.00  0.00    -0.481 OA
ATOM      7  H   UNL     1      52.400  33.579  26.791  1.00  0.00     0.296 HD
ENDBRANCH   4   6
ENDBRANCH   3   4
ENDBRANCH   2   3
ENDBRANCH   1   2
BRANCH   1   8
ATOM      8  C   UNL     1      47.681  33.291  26.102  1.00  0.00     0.000 C 
BRANCH   8   9
ATOM      9  C   UNL     1      46.608  34.061  25.593  1.00  0.00     0.000 C 
BRANCH   9  10
ATOM     10  C   UNL     1      46.726  35.497  25.279  1.00  0.00    -0.000 C 
BRANCH  10  11
ATOM     11  C   UNL     1      47.767  36.189  26.035  1.00  0.00    -0.000 C 
BRANCH  11  12
ATOM     12  C   UNL     1      47.481  37.349  26.756  1.00  0.00    -0.003 C 
ATOM     13  C   UNL     1      48.056  37.620  28.047  1.00  0.00     0.004 C 
ENDBRANCH  11  12
ENDBRANCH  10  11
ENDBRANCH   9  10
ENDBRANCH   8   9
ENDBRANCH   1   8
TORSDOF 9
ENDMDL
MODEL 14
REMARK VINA RESULT:    -4.249      3.712      6.008
REMARK INTER + INTRA:          -6.885
REMARK INTER:                  -6.223
REMARK INTRA:                  -0.663
REMARK UNBOUND:                -0.526
REMARK SMILES CCCCCCCCCC(=O)O
REMARK SMILES IDX 7 1 8 2 9 3 10 4 11 5 12 6 6 8 5 9 4 10 3 11 2 12 1 13
REMARK H PARENT 12 7
REMARK INDEX MAP 5 1 4 2 3 3 1 4 2 5 12 6 32 7 6 8 7 9 8 10 9 11 10 12 11 13
ROOT
ATOM      1  C   UNL     1      46.792  34.176  25.231  1.00  0.00     0.001 C 
ENDROOT
BRANCH   1   2
ATOM      2  C   UNL     1      48.164  33.563  25.548  1.00  0.00     0.012 C 
BRANCH   2   3
ATOM      3  C   UNL     1      48.220  32.088  25.662  1.00  0.00     0.122 C 
BRANCH   3   4
ATOM      4  C   UNL     1      46.925  31.357  25.991  1.00  0.00     0.303 C 
ATOM      5  O   UNL     1      46.307  30.755  25.074  1.00  0.00    -0.252 OA
BRANCH   4   6
ATOM      6  O   UNL     1      46.522  31.351  27.182  1.00  0.00    -0.481 OA
ATOM      7  H   UNL     1      46.149  30.522  27.574  1.00  0.00     0.296 HD
ENDBRANCH   4   6
ENDBRANCH   3   4
ENDBRANCH   2   3
ENDBRANCH   1   2
BRANCH   1   8
ATOM      8  C   UNL     1      46.714  35.624  25.491  1.00  0.00     0.000 C 
BRANCH   8   9
ATOM      9  C   UNL     1      47.829  36.382  25.924  1.00  0.00     0.000 C 
BRANCH   9  10
ATOM     10  C   UNL     1      47.707  37.724  26.523  1.00  0.00    -0.000 C 
BRANCH  10  11
ATOM     11  C   UNL     1      48.178  37.806  27.903  1.00  0.00    -0.000 C 
BRANCH  11  12
ATOM     12  C   UNL     1      47.651  36.974  28.892  1.00  0.00    -0.003 C 
ATOM     13  C   UNL     1      48.474  36.113  29.699  1.00  0.00     0.004 C 
ENDBRANCH  11  12
ENDBRANCH  10  11
ENDBRANCH   9  10
ENDBRANCH   8   9
ENDBRANCH   1   8
TORSDOF 9
ENDMDL
MODEL 15
REMARK VINA RESULT:    -4.175      3.645      4.730
REMARK INTER + INTRA:          -6.775
REMARK INTER:                  -5.846
REMARK INTRA:                  -0.929
REMARK UNBOUND:                -0.526
REMARK SMILES CCCCCCCCCC(=O)O
REMARK SMILES IDX 7 1 8 2 9 3 10 4 11 5 12 6 6 8 5 9 4 10 3 11 2 12 1 13
REMARK H PARENT 12 7
REMARK INDEX MAP 5 1 4 2 3 3 1 4 2 5 12 6 32 7 6 8 7 9 8 10 9 11 10 12 11 13
ROOT
ATOM      1  C   UNL     1      48.397  35.481  28.808  1.00  0.00     0.001 C 
ENDROOT
BRANCH   1   2
ATOM      2  C   UNL     1      47.670  36.834  28.792  1.00  0.00     0.012 C 
BRANCH   2   3
ATOM      3  C   UNL     1      48.220  37.872  27.891  1.00  0.00     0.122 C 
BRANCH   3   4
ATOM      4  C   UNL     1      47.817  37.817  26.423  1.00  0.00     0.303 C 
ATOM      5  O   UNL     1      46.795  37.163  26.089  1.00  0.00    -0.252 OA
BRANCH   4   6
ATOM      6  O   UNL     1      48.506  38.453  25.585  1.00  0.00    -0.481 OA
ATOM      7  H   UNL     1      48.063  39.045  24.928  1.00  0.00     0.296 HD
ENDBRANCH   4   6
ENDBRANCH   3   4
ENDBRANCH   2   3
ENDBRANCH   1   2
BRANCH   1   8
ATOM      8  C   UNL     1      47.491  34.320  28.834  1.00  0.00     0.000 C 
BRANCH   8   9
ATOM      9  C   UNL     1      47.398  33.401  27.760  1.00  0.00     0.000 C 
BRANCH   9  10
ATOM     10  C   UNL     1      47.133  33.813  26.369  1.00  0.00    -0.000 C 
BRANCH  10  11
ATOM     11  C   UNL     1      48.264  33.620  25.464  1.00  0.00    -0.000 C 
BRANCH  11  12
ATOM     12  C   UNL     1      49.435  32.999  25.901  1.00  0.00    -0.003 C 
ATOM     13  C   UNL     1      50.235  32.164  25.045  1.00  0.00     0.004 C 
ENDBRANCH  11  12
ENDBRANCH  10  11
ENDBRANCH   9  10
ENDBRANCH   8   9
ENDBRANCH   1   8
TORSDOF 9
ENDMDL
MODEL 16
REMARK VINA RESULT:    -4.125      3.683      6.471
REMARK INTER + INTRA:          -6.701
REMARK INTER:                  -6.245
REMARK INTRA:                  -0.455
REMARK UNBOUND:                -0.526
REMARK SMILES CCCCCCCCCC(=O)O
REMARK SMILES IDX 7 1 8 2 9 3 10 4 11 5 12 6 6 8 5 9 4 10 3 11 2 12 1 13
REMARK H PARENT 12 7
REMARK INDEX MAP 5 1 4 2 3 3 1 4 2 5 12 6 32 7 6 8 7 9 8 10 9 11 10 12 11 13
ROOT
ATOM      1  C   UNL     1      47.680  37.017  29.126  1.00  0.00     0.001 C 
ENDROOT
BRANCH   1   2
ATOM      2  C   UNL     1      48.173  37.612  27.799  1.00  0.00     0.012 C 
BRANCH   2   3
ATOM      3  C   UNL     1      47.303  37.410  26.619  1.00  0.00     0.122 C 
BRANCH   3   4
ATOM      4  C   UNL     1      47.410  36.080  25.883  1.00  0.00     0.303 C 
ATOM      5  O   UNL     1      48.438  35.371  26.039  1.00  0.00    -0.252 OA
BRANCH   4   6
ATOM      6  O   UNL     1      46.451  35.714  25.158  1.00  0.00    -0.481 OA
ATOM      7  H   UNL     1      46.547  35.712  24.173  1.00  0.00     0.296 HD
ENDBRANCH   4   6
ENDBRANCH   3   4
ENDBRANCH   2   3
ENDBRANCH   1   2
BRANCH   1   8
ATOM      8  C   UNL     1      48.470  35.863  29.590  1.00  0.00     0.000 C 
BRANCH   8   9
ATOM      9  C   UNL     1      48.872  35.708  30.940  1.00  0.00     0.000 C 
BRANCH   9  10
ATOM     10  C   UNL     1      50.239  35.322  31.334  1.00  0.00    -0.000 C 
BRANCH  10  11
ATOM     11  C   UNL     1      50.762  36.065  32.479  1.00  0.00    -0.000 C 
BRANCH  11  12
ATOM     12  C   UNL     1      52.135  36.162  32.704  1.00  0.00    -0.003 C 
ATOM     13  C   UNL     1      53.095  36.198  31.632  1.00  0.00     0.004 C 
ENDBRANCH  11  12
ENDBRANCH  10  11
ENDBRANCH   9  10
ENDBRANCH   8   9
ENDBRANCH   1   8
TORSDOF 9
ENDMDL
MODEL 17
REMARK VINA RESULT:    -4.105      3.276      5.828
REMARK INTER + INTRA:          -6.670
REMARK INTER:                  -5.860
REMARK INTRA:                  -0.811
REMARK UNBOUND:                -0.526
REMARK SMILES CCCCCCCCCC(=O)O
REMARK SMILES IDX 7 1 8 2 9 3 10 4 11 5 12 6 6 8 5 9 4 10 3 11 2 12 1 13
REMARK H PARENT 12 7
REMARK INDEX MAP 5 1 4 2 3 3 1 4 2 5 12 6 32 7 6 8 7 9 8 10 9 11 10 12 11 13
ROOT
ATOM      1  C   UNL     1      47.844  36.616  25.745  1.00  0.00     0.001 C 
ENDROOT
BRANCH   1   2
ATOM      2  C   UNL     1      46.803  35.489  25.670  1.00  0.00     0.012 C 
BRANCH   2   3
ATOM      3  C   UNL     1      47.323  34.119  25.467  1.00  0.00     0.122 C 
BRANCH   3   4
ATOM      4  C   UNL     1      48.637  33.755  26.147  1.00  0.00     0.303 C 
ATOM      5  O   UNL     1      48.684  33.696  27.404  1.00  0.00    -0.252 OA
BRANCH   4   6
ATOM      6  O   UNL     1      49.636  33.496  25.429  1.00  0.00    -0.481 OA
ATOM      7  H   UNL     1      49.664  33.808  24.490  1.00  0.00     0.296 HD
ENDBRANCH   4   6
ENDBRANCH   3   4
ENDBRANCH   2   3
ENDBRANCH   1   2
BRANCH   1   8
ATOM      8  C   UNL     1      47.558  37.621  26.784  1.00  0.00     0.000 C 
BRANCH   8   9
ATOM      9  C   UNL     1      48.156  37.582  28.067  1.00  0.00     0.000 C 
BRANCH   9  10
ATOM     10  C   UNL     1      47.612  36.789  29.185  1.00  0.00    -0.000 C 
BRANCH  10  11
ATOM     11  C   UNL     1      48.617  36.019  29.914  1.00  0.00    -0.000 C 
BRANCH  11  12
ATOM     12  C   UNL     1      48.470  35.756  31.276  1.00  0.00    -0.003 C 
ATOM     13  C   UNL     1      49.592  35.661  32.172  1.00  0.00     0.004 C 
ENDBRANCH  11  12
ENDBRANCH  10  11
ENDBRANCH   9  10
ENDBRANCH   8   9
ENDBRANCH   1   8
TORSDOF 9
ENDMDL
MODEL 18
REMARK VINA RESULT:    -4.097      4.768      6.602
REMARK INTER + INTRA:          -6.659
REMARK INTER:                  -5.996
REMARK INTRA:                  -0.663
REMARK UNBOUND:                -0.526
REMARK SMILES CCCCCCCCCC(=O)O
REMARK SMILES IDX 7 1 8 2 9 3 10 4 11 5 12 6 6 8 5 9 4 10 3 11 2 12 1 13
REMARK H PARENT 12 7
REMARK INDEX MAP 5 1 4 2 3 3 1 4 2 5 12 6 32 7 6 8 7 9 8 10 9 11 10 12 11 13
ROOT
ATOM      1  C   UNL     1      46.847  33.479  26.925  1.00  0.00     0.001 C 
ENDROOT
BRANCH   1   2
ATOM      2  C   UNL     1      46.720  31.949  26.877  1.00  0.00     0.012 C 
BRANCH   2   3
ATOM      3  C   UNL     1      47.381  31.265  25.743  1.00  0.00     0.122 C 
BRANCH   3   4
ATOM      4  C   UNL     1      46.880  29.876  25.369  1.00  0.00     0.303 C 
ATOM      5  O   UNL     1      47.641  28.885  25.520  1.00  0.00    -0.252 OA
BRANCH   4   6
ATOM      6  O   UNL     1      45.703  29.754  24.942  1.00  0.00    -0.481 OA
ATOM      7  H   UNL     1      45.072  29.144  25.399  1.00  0.00     0.296 HD
ENDBRANCH   4   6
ENDBRANCH   3   4
ENDBRANCH   2   3
ENDBRANCH   1   2
BRANCH   1   8
ATOM      8  C   UNL     1      46.397  34.152  25.694  1.00  0.00     0.000 C 
BRANCH   8   9
ATOM      9  C   UNL     1      46.734  35.494  25.392  1.00  0.00     0.000 C 
BRANCH   9  10
ATOM     10  C   UNL     1      47.906  36.178  25.968  1.00  0.00    -0.000 C 
BRANCH  10  11
ATOM     11  C   UNL     1      47.622  37.515  26.484  1.00  0.00    -0.000 C 
BRANCH  11  12
ATOM     12  C   UNL     1      48.011  37.885  27.773  1.00  0.00    -0.003 C 
ATOM     13  C   UNL     1      47.910  36.993  28.897  1.00  0.00     0.004 C 
ENDBRANCH  11  12
ENDBRANCH  10  11
ENDBRANCH   9  10
ENDBRANCH   8   9
ENDBRANCH   1   8
TORSDOF 9
ENDMDL
MODEL 19
REMARK VINA RESULT:    -4.067      3.710      5.504
REMARK INTER + INTRA:          -6.614
REMARK INTER:                  -5.404
REMARK INTRA:                  -1.211
REMARK UNBOUND:                -0.526
REMARK SMILES CCCCCCCCCC(=O)O
REMARK SMILES IDX 7 1 8 2 9 3 10 4 11 5 12 6 6 8 5 9 4 10 3 11 2 12 1 13
REMARK H PARENT 12 7
REMARK INDEX MAP 5 1 4 2 3 3 1 4 2 5 12 6 32 7 6 8 7 9 8 10 9 11 10 12 11 13
ROOT
ATOM      1  C   UNL     1      47.459  37.619  26.597  1.00  0.00     0.001 C 
ENDROOT
BRANCH   1   2
ATOM      2  C   UNL     1      47.828  36.397  25.743  1.00  0.00     0.012 C 
BRANCH   2   3
ATOM      3  C   UNL     1      46.746  35.422  25.479  1.00  0.00     0.122 C 
BRANCH   3   4
ATOM      4  C   UNL     1      47.130  33.952  25.377  1.00  0.00     0.303 C 
ATOM      5  O   UNL     1      48.344  33.639  25.259  1.00  0.00    -0.252 OA
BRANCH   4   6
ATOM      6  O   UNL     1      46.221  33.086  25.443  1.00  0.00    -0.481 OA
ATOM      7  H   UNL     1      46.057  32.603  26.291  1.00  0.00     0.296 HD
ENDBRANCH   4   6
ENDBRANCH   3   4
ENDBRANCH   2   3
ENDBRANCH   1   2
BRANCH   1   8
ATOM      8  C   UNL     1      48.200  37.700  27.869  1.00  0.00     0.000 C 
BRANCH   8   9
ATOM      9  C   UNL     1      47.690  37.176  29.081  1.00  0.00     0.000 C 
BRANCH   9  10
ATOM     10  C   UNL     1      48.322  36.055  29.802  1.00  0.00    -0.000 C 
BRANCH  10  11
ATOM     11  C   UNL     1      47.835  34.738  29.401  1.00  0.00    -0.000 C 
BRANCH  11  12
ATOM     12  C   UNL     1      48.714  33.759  28.936  1.00  0.00    -0.003 C 
ATOM     13  C   UNL     1      48.336  32.376  28.807  1.00  0.00     0.004 C 
ENDBRANCH  11  12
ENDBRANCH  10  11
ENDBRANCH   9  10
ENDBRANCH   8   9
ENDBRANCH   1   8
TORSDOF 9
ENDMDL
