MODEL 1
REMARK VINA RESULT:    -4.868      0.000      0.000
REMARK INTER + INTRA:          -7.730
REMARK INTER:                  -7.144
REMARK INTRA:                  -0.586
REMARK UNBOUND:                -0.586
REMARK SMILES CCCCCCCCCC(=O)[O-]
REMARK SMILES IDX 6 1 7 2 8 3 9 4 10 5 11 6 12 7 5 8 4 9 3 10 2 11 1 12
REMARK H PARENT
REMARK INDEX MAP 6 1 5 2 4 3 3 4 1 5 2 6 12 7 7 8 8 9 9 10 10 11 11 12
ROOT
ATOM      1  C   UNL     1      47.511  36.373  25.778  1.00  0.00     0.000 C 
ENDROOT
BRANCH   1   2
ATOM      2  C   UNL     1      47.084  37.597  26.478  1.00  0.00     0.000 C 
BRANCH   2   3
ATOM      3  C   UNL     1      48.090  38.094  27.527  1.00  0.00     0.006 C 
BRANCH   3   4
ATOM      4  C   UNL     1      48.635  37.078  28.456  1.00  0.00     0.053 C 
BRANCH   4   5
ATOM      5  C   UNL     1      47.673  36.448  29.455  1.00  0.00     0.041 C 
ATOM      6  O   UNL     1      47.410  35.221  29.367  1.00  0.00    -0.550 OA
ATOM      7  O   UNL     1      47.187  37.171  30.362  1.00  0.00    -0.550 OA
ENDBRANCH   4   5
ENDBRANCH   3   4
ENDBRANCH   2   3
ENDBRANCH   1   2
BRANCH   1   8
ATOM      8  C   UNL     1      46.589  35.437  25.250  1.00  0.00     0.000 C 
BRANCH   8   9
ATOM      9  C   UNL     1      46.673  33.988  25.513  1.00  0.00    -0.000 C 
BRANCH   9  10
ATOM     10  C   UNL     1      48.004  33.529  25.903  1.00  0.00    -0.000 C 
BRANCH  10  11
ATOM     11  C   UNL     1      48.827  32.863  24.994  1.00  0.00    -0.003 C 
ATOM     12  C   UNL     1      50.241  32.700  25.206  1.00  0.00     0.004 C 
ENDBRANCH  10  11
ENDBRANCH   9  10
ENDBRANCH   8   9
ENDBRANCH   1   8
TORSDOF 8
ENDMDL
MODEL 2
REMARK VINA RESULT:    -4.862      2.051      3.230
REMARK INTER + INTRA:          -7.722
REMARK INTER:                  -7.183
REMARK INTRA:                  -0.540
REMARK UNBOUND:                -0.586
REMARK SMILES CCCCCCCCCC(=O)[O-]
REMARK SMILES IDX 6 1 7 2 8 3 9 4 10 5 11 6 12 7 5 8 4 9 3 10 2 11 1 12
REMARK H PARENT
REMARK INDEX MAP 6 1 5 2 4 3 3 4 1 5 2 6 12 7 7 8 8 9 9 10 10 11 11 12
ROOT
ATOM      1  C   UNL     1      48.363  37.746  28.189  1.00  0.00     0.000 C 
ENDROOT
BRANCH   1   2
ATOM      2  C   UNL     1      47.446  37.137  29.169  1.00  0.00     0.000 C 
BRANCH   2   3
ATOM      3  C   UNL     1      47.873  35.734  29.627  1.00  0.00     0.006 C 
BRANCH   3   4
ATOM      4  C   UNL     1      48.547  35.643  30.942  1.00  0.00     0.053 C 
BRANCH   4   5
ATOM      5  C   UNL     1      47.677  35.741  32.188  1.00  0.00     0.041 C 
ATOM      6  O   UNL     1      47.961  36.590  33.073  1.00  0.00    -0.550 OA
ATOM      7  O   UNL     1      46.677  34.984  32.286  1.00  0.00    -0.550 OA
ENDBRANCH   4   5
ENDBRANCH   3   4
ENDBRANCH   2   3
ENDBRANCH   1   2
BRANCH   1   8
ATOM      8  C   UNL     1      48.014  37.923  26.828  1.00  0.00     0.000 C 
BRANCH   8   9
ATOM      9  C   UNL     1      47.022  37.081  26.135  1.00  0.00    -0.000 C 
BRANCH   9  10
ATOM     10  C   UNL     1      47.492  35.731  25.833  1.00  0.00    -0.000 C 
BRANCH  10  11
ATOM     11  C   UNL     1      46.604  34.656  25.785  1.00  0.00    -0.003 C 
ATOM     12  C   UNL     1      45.731  34.422  24.665  1.00  0.00     0.004 C 
ENDBRANCH  10  11
ENDBRANCH   9  10
ENDBRANCH   8   9
ENDBRANCH   1   8
TORSDOF 8
ENDMDL
MODEL 3
REMARK VINA RESULT:    -4.808      1.208      1.759
REMARK INTER + INTRA:          -7.643
REMARK INTER:                  -6.831
REMARK INTRA:                  -0.812
REMARK UNBOUND:                -0.586
REMARK SMILES CCCCCCCCCC(=O)[O-]
REMARK SMILES IDX 6 1 7 2 8 3 9 4 10 5 11 6 12 7 5 8 4 9 3 10 2 11 1 12
REMARK H PARENT
REMARK INDEX MAP 6 1 5 2 4 3 3 4 1 5 2 6 12 7 7 8 8 9 9 10 10 11 11 12
ROOT
ATOM      1  C   UNL     1      47.119  37.333  26.638  1.00  0.00     0.000 C 
ENDROOT
BRANCH   1   2
ATOM      2  C   UNL     1      48.078  37.545  27.736  1.00  0.00     0.000 C 
BRANCH   2   3
ATOM      3  C   UNL     1      47.545  37.128  29.114  1.00  0.00     0.006 C 
BRANCH   3   4
ATOM      4  C   UNL     1      48.247  36.012  29.787  1.00  0.00     0.053 C 
BRANCH   4   5
ATOM      5  C   UNL     1      48.184  34.640  29.129  1.00  0.00     0.041 C 
ATOM      6  O   UNL     1      49.251  34.004  28.927  1.00  0.00    -0.550 OA
ATOM      7  O   UNL     1      47.058  34.167  28.830  1.00  0.00    -0.550 OA
ENDBRANCH   4   5
ENDBRANCH   3   4
ENDBRANCH   2   3
ENDBRANCH   1   2
BRANCH   1   8
ATOM      8  C   UNL     1      47.315  36.356  25.632  1.00  0.00     0.000 C 
BRANCH   8   9
ATOM      9  C   UNL     1      46.525  35.113  25.551  1.00  0.00    -0.000 C 
BRANCH   9  10
ATOM     10  C   UNL     1      47.302  33.937  25.165  1.00  0.00    -0.000 C 
BRANCH  10  11
ATOM     11  C   UNL     1      48.652  33.828  25.499  1.00  0.00    -0.003 C 
ATOM     12  C   UNL     1      49.456  32.698  25.114  1.00  0.00     0.004 C 
ENDBRANCH  10  11
ENDBRANCH   9  10
ENDBRANCH   8   9
ENDBRANCH   1   8
TORSDOF 8
ENDMDL
MODEL 4
REMARK VINA RESULT:    -4.739      2.173      3.240
REMARK INTER + INTRA:          -7.541
REMARK INTER:                  -7.038
REMARK INTRA:                  -0.503
REMARK UNBOUND:                -0.586
REMARK SMILES CCCCCCCCCC(=O)[O-]
REMARK SMILES IDX 6 1 7 2 8 3 9 4 10 5 11 6 12 7 5 8 4 9 3 10 2 11 1 12
REMARK H PARENT
REMARK INDEX MAP 6 1 5 2 4 3 3 4 1 5 2 6 12 7 7 8 8 9 9 10 10 11 11 12
ROOT
ATOM      1  C   UNL     1      48.046  37.622  27.995  1.00  0.00     0.000 C 
ENDROOT
BRANCH   1   2
ATOM      2  C   UNL     1      48.180  36.592  29.040  1.00  0.00     0.000 C 
BRANCH   2   3
ATOM      3  C   UNL     1      47.263  36.816  30.252  1.00  0.00     0.006 C 
BRANCH   3   4
ATOM      4  C   UNL     1      47.556  36.015  31.461  1.00  0.00     0.053 C 
BRANCH   4   5
ATOM      5  C   UNL     1      46.794  36.357  32.735  1.00  0.00     0.041 C 
ATOM      6  O   UNL     1      47.087  37.407  33.365  1.00  0.00    -0.550 OA
ATOM      7  O   UNL     1      45.870  35.591  33.109  1.00  0.00    -0.550 OA
ENDBRANCH   4   5
ENDBRANCH   3   4
ENDBRANCH   2   3
ENDBRANCH   1   2
BRANCH   1   8
ATOM      8  C   UNL     1      47.431  37.365  26.746  1.00  0.00     0.000 C 
BRANCH   8   9
ATOM      9  C   UNL     1      47.781  36.210  25.899  1.00  0.00    -0.000 C 
BRANCH   9  10
ATOM     10  C   UNL     1      46.631  35.551  25.284  1.00  0.00    -0.000 C 
BRANCH  10  11
ATOM     11  C   UNL     1      46.246  34.267  25.674  1.00  0.00    -0.003 C 
ATOM     12  C   UNL     1      46.656  33.682  26.924  1.00  0.00     0.004 C 
ENDBRANCH  10  11
ENDBRANCH   9  10
ENDBRANCH   8   9
ENDBRANCH   1   8
TORSDOF 8
ENDMDL
MODEL 5
REMARK VINA RESULT:    -4.608      2.841      4.884
REMARK INTER + INTRA:          -7.349
REMARK INTER:                  -6.466
REMARK INTRA:                  -0.882
REMARK UNBOUND:                -0.586
REMARK SMILES CCCCCCCCCC(=O)[O-]
REMARK SMILES IDX 6 1 7 2 8 3 9 4 10 5 11 6 12 7 5 8 4 9 3 10 2 11 1 12
REMARK H PARENT
REMARK INDEX MAP 6 1 5 2 4 3 3 4 1 5 2 6 12 7 7 8 8 9 9 10 10 11 11 12
ROOT
ATOM      1  C   UNL     1      47.899  36.672  25.736  1.00  0.00     0.000 C 
ENDROOT
BRANCH   1   2
ATOM      2  C   UNL     1      46.899  35.595  25.632  1.00  0.00     0.000 C 
BRANCH   2   3
ATOM      3  C   UNL     1      47.509  34.188  25.542  1.00  0.00     0.006 C 
BRANCH   3   4
ATOM      4  C   UNL     1      48.938  34.062  25.904  1.00  0.00     0.053 C 
BRANCH   4   5
ATOM      5  C   UNL     1      49.744  32.964  25.223  1.00  0.00     0.041 C 
ATOM      6  O   UNL     1      50.993  32.929  25.378  1.00  0.00    -0.550 OA
ATOM      7  O   UNL     1      49.133  32.101  24.543  1.00  0.00    -0.550 OA
ENDBRANCH   4   5
ENDBRANCH   3   4
ENDBRANCH   2   3
ENDBRANCH   1   2
BRANCH   1   8
ATOM      8  C   UNL     1      47.652  37.874  26.443  1.00  0.00     0.000 C 
BRANCH   8   9
ATOM      9  C   UNL     1      48.212  38.152  27.778  1.00  0.00    -0.000 C 
BRANCH   9  10
ATOM     10  C   UNL     1      47.691  37.288  28.835  1.00  0.00    -0.000 C 
BRANCH  10  11
ATOM     11  C   UNL     1      48.469  36.261  29.371  1.00  0.00    -0.003 C 
ATOM     12  C   UNL     1      48.028  34.892  29.404  1.00  0.00     0.004 C 
ENDBRANCH  10  11
ENDBRANCH   9  10
ENDBRANCH   8   9
ENDBRANCH   1   8
TORSDOF 8
ENDMDL
MODEL 6
REMARK VINA RESULT:    -4.594      2.927      4.970
REMARK INTER + INTRA:          -7.328
REMARK INTER:                  -6.445
REMARK INTRA:                  -0.883
REMARK UNBOUND:                -0.586
REMARK SMILES CCCCCCCCCC(=O)[O-]
REMARK SMILES IDX 6 1 7 2 8 3 9 4 10 5 11 6 12 7 5 8 4 9 3 10 2 11 1 12
REMARK H PARENT
REMARK INDEX MAP 6 1 5 2 4 3 3 4 1 5 2 6 12 7 7 8 8 9 9 10 10 11 11 12
ROOT
ATOM      1  C   UNL     1      47.115  35.731  25.480  1.00  0.00     0.000 C 
ENDROOT
BRANCH   1   2
ATOM      2  C   UNL     1      46.558  34.468  25.996  1.00  0.00     0.000 C 
BRANCH   2   3
ATOM      3  C   UNL     1      47.623  33.414  26.335  1.00  0.00     0.006 C 
BRANCH   3   4
ATOM      4  C   UNL     1      49.026  33.766  26.022  1.00  0.00     0.053 C 
BRANCH   4   5
ATOM      5  C   UNL     1      49.821  32.795  25.159  1.00  0.00     0.041 C 
ATOM      6  O   UNL     1      49.207  31.953  24.453  1.00  0.00    -0.550 OA
ATOM      7  O   UNL     1      51.076  32.881  25.154  1.00  0.00    -0.550 OA
ENDBRANCH   4   5
ENDBRANCH   3   4
ENDBRANCH   2   3
ENDBRANCH   1   2
BRANCH   1   8
ATOM      8  C   UNL     1      46.903  36.976  26.122  1.00  0.00     0.000 C 
BRANCH   8   9
ATOM      9  C   UNL     1      48.000  37.887  26.494  1.00  0.00    -0.000 C 
BRANCH   9  10
ATOM     10  C   UNL     1      48.371  37.828  27.906  1.00  0.00    -0.000 C 
BRANCH  10  11
ATOM     11  C   UNL     1      47.644  37.049  28.807  1.00  0.00    -0.003 C 
ATOM     12  C   UNL     1      48.202  35.893  29.458  1.00  0.00     0.004 C 
ENDBRANCH  10  11
ENDBRANCH   9  10
ENDBRANCH   8   9
ENDBRANCH   1   8
TORSDOF 8
ENDMDL
MODEL 7
REMARK VINA RESULT:    -4.572      1.984      4.265
REMARK INTER + INTRA:          -7.296
REMARK INTER:                  -6.607
REMARK INTRA:                  -0.689
REMARK UNBOUND:                -0.586
REMARK SMILES CCCCCCCCCC(=O)[O-]
REMARK SMILES IDX 6 1 7 2 8 3 9 4 10 5 11 6 12 7 5 8 4 9 3 10 2 11 1 12
REMARK H PARENT
REMARK INDEX MAP 6 1 5 2 4 3 3 4 1 5 2 6 12 7 7 8 8 9 9 10 10 11 11 12
ROOT
ATOM      1  C   UNL     1      46.559  35.762  25.555  1.00  0.00     0.000 C 
ENDROOT
BRANCH   1   2
ATOM      2  C   UNL     1      46.572  34.526  24.752  1.00  0.00     0.000 C 
BRANCH   2   3
ATOM      3  C   UNL     1      46.620  33.242  25.593  1.00  0.00     0.006 C 
BRANCH   3   4
ATOM      4  C   UNL     1      46.133  33.344  26.987  1.00  0.00     0.053 C 
BRANCH   4   5
ATOM      5  C   UNL     1      47.161  33.216  28.104  1.00  0.00     0.041 C 
ATOM      6  O   UNL     1      46.766  33.086  29.292  1.00  0.00    -0.550 OA
ATOM      7  O   UNL     1      48.382  33.218  27.802  1.00  0.00    -0.550 OA
ENDBRANCH   4   5
ENDBRANCH   3   4
ENDBRANCH   2   3
ENDBRANCH   1   2
BRANCH   1   8
ATOM      8  C   UNL     1      47.739  36.477  25.872  1.00  0.00     0.000 C 
BRANCH   8   9
ATOM      9  C   UNL     1      47.729  37.848  26.414  1.00  0.00    -0.000 C 
BRANCH   9  10
ATOM     10  C   UNL     1      48.249  37.954  27.776  1.00  0.00    -0.000 C 
BRANCH  10  11
ATOM     11  C   UNL     1      47.750  37.149  28.799  1.00  0.00    -0.003 C 
ATOM     12  C   UNL     1      48.589  36.275  29.577  1.00  0.00     0.004 C 
ENDBRANCH  10  11
ENDBRANCH   9  10
ENDBRANCH   8   9
ENDBRANCH   1   8
TORSDOF 8
ENDMDL
MODEL 8
REMARK VINA RESULT:    -4.549      1.681      2.249
REMARK INTER + INTRA:          -7.262
REMARK INTER:                  -6.498
REMARK INTRA:                  -0.764
REMARK UNBOUND:                -0.586
REMARK SMILES CCCCCCCCCC(=O)[O-]
REMARK SMILES IDX 6 1 7 2 8 3 9 4 10 5 11 6 12 7 5 8 4 9 3 10 2 11 1 12
REMARK H PARENT
REMARK INDEX MAP 6 1 5 2 4 3 3 4 1 5 2 6 12 7 7 8 8 9 9 10 10 11 11 12
ROOT
ATOM      1  C   UNL     1      48.022  36.880  25.939  1.00  0.00     0.000 C 
ENDROOT
BRANCH   1   2
ATOM      2  C   UNL     1      48.062  37.769  27.113  1.00  0.00     0.000 C 
BRANCH   2   3
ATOM      3  C   UNL     1      47.395  37.176  28.363  1.00  0.00     0.006 C 
BRANCH   3   4
ATOM      4  C   UNL     1      48.260  36.376  29.258  1.00  0.00     0.053 C 
BRANCH   4   5
ATOM      5  C   UNL     1      47.655  35.881  30.565  1.00  0.00     0.041 C 
ATOM      6  O   UNL     1      47.251  36.718  31.413  1.00  0.00    -0.550 OA
ATOM      7  O   UNL     1      47.551  34.641  30.750  1.00  0.00    -0.550 OA
ENDBRANCH   4   5
ENDBRANCH   3   4
ENDBRANCH   2   3
ENDBRANCH   1   2
BRANCH   1   8
ATOM      8  C   UNL     1      46.870  36.134  25.587  1.00  0.00     0.000 C 
BRANCH   8   9
ATOM      9  C   UNL     1      46.921  34.715  25.189  1.00  0.00    -0.000 C 
BRANCH   9  10
ATOM     10  C   UNL     1      46.170  33.822  26.068  1.00  0.00    -0.000 C 
BRANCH  10  11
ATOM     11  C   UNL     1      46.608  33.558  27.366  1.00  0.00    -0.003 C 
ATOM     12  C   UNL     1      46.193  32.394  28.102  1.00  0.00     0.004 C 
ENDBRANCH  10  11
ENDBRANCH   9  10
ENDBRANCH   8   9
ENDBRANCH   1   8
TORSDOF 8
ENDMDL
MODEL 9
REMARK VINA RESULT:    -4.498      2.356      4.369
REMARK INTER + INTRA:          -7.188
REMARK INTER:                  -6.737
REMARK INTRA:                  -0.451
REMARK UNBOUND:                -0.586
REMARK SMILES CCCCCCCCCC(=O)[O-]
REMARK SMILES IDX 6 1 7 2 8 3 9 4 10 5 11 6 12 7 5 8 4 9 3 10 2 11 1 12
REMARK H PARENT
REMARK INDEX MAP 6 1 5 2 4 3 3 4 1 5 2 6 12 7 7 8 8 9 9 10 10 11 11 12
ROOT
ATOM      1  C   UNL     1      47.795  36.053  29.547  1.00  0.00     0.000 C 
ENDROOT
BRANCH   1   2
ATOM      2  C   UNL     1      49.111  35.849  30.178  1.00  0.00     0.000 C 
BRANCH   2   3
ATOM      3  C   UNL     1      49.089  34.855  31.349  1.00  0.00     0.006 C 
BRANCH   3   4
ATOM      4  C   UNL     1      48.790  35.414  32.686  1.00  0.00     0.053 C 
BRANCH   4   5
ATOM      5  C   UNL     1      47.361  35.868  32.957  1.00  0.00     0.041 C 
ATOM      6  O   UNL     1      47.153  37.045  33.351  1.00  0.00    -0.550 OA
ATOM      7  O   UNL     1      46.422  35.057  32.752  1.00  0.00    -0.550 OA
ENDBRANCH   4   5
ENDBRANCH   3   4
ENDBRANCH   2   3
ENDBRANCH   1   2
BRANCH   1   8
ATOM      8  C   UNL     1      47.454  37.248  28.867  1.00  0.00     0.000 C 
BRANCH   8   9
ATOM      9  C   UNL     1      48.389  37.964  27.980  1.00  0.00    -0.000 C 
BRANCH   9  10
ATOM     10  C   UNL     1      48.046  37.883  26.562  1.00  0.00    -0.000 C 
BRANCH  10  11
ATOM     11  C   UNL     1      46.954  37.130  26.130  1.00  0.00    -0.003 C 
ATOM     12  C   UNL     1      47.102  35.863  25.463  1.00  0.00     0.004 C 
ENDBRANCH  10  11
ENDBRANCH   9  10
ENDBRANCH   8   9
ENDBRANCH   1   8
TORSDOF 8
ENDMDL
MODEL 10
REMARK VINA RESULT:    -4.379      3.014      5.105
REMARK INTER + INTRA:          -7.013
REMARK INTER:                  -6.574
REMARK INTRA:                  -0.438
REMARK UNBOUND:                -0.586
REMARK SMILES CCCCCCCCCC(=O)[O-]
REMARK SMILES IDX 6 1 7 2 8 3 9 4 10 5 11 6 12 7 5 8 4 9 3 10 2 11 1 12
REMARK H PARENT
REMARK INDEX MAP 6 1 5 2 4 3 3 4 1 5 2 6 12 7 7 8 8 9 9 10 10 11 11 12
ROOT
ATOM      1  C   UNL     1      48.633  35.320  30.638  1.00  0.00     0.000 C 
ENDROOT
BRANCH   1   2
ATOM      2  C   UNL     1      47.350  35.207  31.353  1.00  0.00     0.000 C 
BRANCH   2   3
ATOM      3  C   UNL     1      47.223  36.158  32.553  1.00  0.00     0.006 C 
BRANCH   3   4
ATOM      4  C   UNL     1      46.006  36.999  32.607  1.00  0.00     0.053 C 
BRANCH   4   5
ATOM      5  C   UNL     1      44.804  36.452  33.366  1.00  0.00     0.041 C 
ATOM      6  O   UNL     1      44.214  37.189  34.198  1.00  0.00    -0.550 OA
ATOM      7  O   UNL     1      44.417  35.281  33.119  1.00  0.00    -0.550 OA
ENDBRANCH   4   5
ENDBRANCH   3   4
ENDBRANCH   2   3
ENDBRANCH   1   2
BRANCH   1   8
ATOM      8  C   UNL     1      48.827  36.213  29.556  1.00  0.00     0.000 C 
BRANCH   8   9
ATOM      9  C   UNL     1      47.721  36.935  28.901  1.00  0.00    -0.000 C 
BRANCH   9  10
ATOM     10  C   UNL     1      48.156  37.940  27.933  1.00  0.00    -0.000 C 
BRANCH  10  11
ATOM     11  C   UNL     1      47.743  37.879  26.602  1.00  0.00    -0.003 C 
ATOM     12  C   UNL     1      47.220  36.677  26.007  1.00  0.00     0.004 C 
ENDBRANCH  10  11
ENDBRANCH   9  10
ENDBRANCH   8   9
ENDBRANCH   1   8
TORSDOF 8
ENDMDL
MODEL 11
REMARK VINA RESULT:    -4.340      3.247      5.450
REMARK INTER + INTRA:          -6.956
REMARK INTER:                  -6.351
REMARK INTRA:                  -0.605
REMARK UNBOUND:                -0.586
REMARK SMILES CCCCCCCCCC(=O)[O-]
REMARK SMILES IDX 6 1 7 2 8 3 9 4 10 5 11 6 12 7 5 8 4 9 3 10 2 11 1 12
REMARK H PARENT
REMARK INDEX MAP 6 1 5 2 4 3 3 4 1 5 2 6 12 7 7 8 8 9 9 10 10 11 11 12
ROOT
ATOM      1  C   UNL     1      46.262  34.404  25.766  1.00  0.00     0.000 C 
ENDROOT
BRANCH   1   2
ATOM      2  C   UNL     1      47.156  33.443  26.435  1.00  0.00     0.000 C 
BRANCH   2   3
ATOM      3  C   UNL     1      48.075  32.677  25.472  1.00  0.00     0.006 C 
BRANCH   3   4
ATOM      4  C   UNL     1      49.517  33.005  25.529  1.00  0.00     0.053 C 
BRANCH   4   5
ATOM      5  C   UNL     1      50.480  32.078  24.800  1.00  0.00     0.041 C 
ATOM      6  O   UNL     1      51.718  32.298  24.867  1.00  0.00    -0.550 OA
ATOM      7  O   UNL     1      50.011  31.097  24.168  1.00  0.00    -0.550 OA
ENDBRANCH   4   5
ENDBRANCH   3   4
ENDBRANCH   2   3
ENDBRANCH   1   2
BRANCH   1   8
ATOM      8  C   UNL     1      46.725  35.632  25.233  1.00  0.00     0.000 C 
BRANCH   8   9
ATOM      9  C   UNL     1      47.876  36.367  25.788  1.00  0.00    -0.000 C 
BRANCH   9  10
ATOM     10  C   UNL     1      47.509  37.478  26.664  1.00  0.00    -0.000 C 
BRANCH  10  11
ATOM     11  C   UNL     1      48.120  37.643  27.907  1.00  0.00    -0.003 C 
ATOM     12  C   UNL     1      47.687  36.936  29.083  1.00  0.00     0.004 C 
ENDBRANCH  10  11
ENDBRANCH   9  10
ENDBRANCH   8   9
ENDBRANCH   1   8
TORSDOF 8
ENDMDL
MODEL 12
REMARK VINA RESULT:    -4.323      1.648      2.986
REMARK INTER + INTRA:          -6.930
REMARK INTER:                  -6.189
REMARK INTRA:                  -0.740
REMARK UNBOUND:                -0.586
REMARK SMILES CCCCCCCCCC(=O)[O-]
REMARK SMILES IDX 6 1 7 2 8 3 9 4 10 5 11 6 12 7 5 8 4 9 3 10 2 11 1 12
REMARK H PARENT
REMARK INDEX MAP 6 1 5 2 4 3 3 4 1 5 2 6 12 7 7 8 8 9 9 10 10 11 11 12
ROOT
ATOM      1  C   UNL     1      46.209  33.064  26.165  1.00  0.00     0.000 C 
ENDROOT
BRANCH   1   2
ATOM      2  C   UNL     1      45.746  34.101  25.226  1.00  0.00     0.000 C 
BRANCH   2   3
ATOM      3  C   UNL     1      46.688  35.310  25.124  1.00  0.00     0.006 C 
BRANCH   3   4
ATOM      4  C   UNL     1      47.515  35.608  26.314  1.00  0.00     0.053 C 
BRANCH   4   5
ATOM      5  C   UNL     1      47.205  36.884  27.086  1.00  0.00     0.041 C 
ATOM      6  O   UNL     1      46.779  37.892  26.465  1.00  0.00    -0.550 OA
ATOM      7  O   UNL     1      47.360  36.885  28.334  1.00  0.00    -0.550 OA
ENDBRANCH   4   5
ENDBRANCH   3   4
ENDBRANCH   2   3
ENDBRANCH   1   2
BRANCH   1   8
ATOM      8  C   UNL     1      46.928  31.920  25.742  1.00  0.00     0.000 C 
BRANCH   8   9
ATOM      9  C   UNL     1      48.382  31.767  25.935  1.00  0.00    -0.000 C 
BRANCH   9  10
ATOM     10  C   UNL     1      49.193  32.526  24.986  1.00  0.00    -0.000 C 
BRANCH  10  11
ATOM     11  C   UNL     1      50.431  33.050  25.358  1.00  0.00    -0.003 C 
ATOM     12  C   UNL     1      51.654  32.300  25.246  1.00  0.00     0.004 C 
ENDBRANCH  10  11
ENDBRANCH   9  10
ENDBRANCH   8   9
ENDBRANCH   1   8
TORSDOF 8
ENDMDL
MODEL 13
REMARK VINA RESULT:    -4.275      2.733      5.185
REMARK INTER + INTRA:          -6.861
REMARK INTER:                  -6.136
REMARK INTRA:                  -0.724
REMARK UNBOUND:                -0.586
REMARK SMILES CCCCCCCCCC(=O)[O-]
REMARK SMILES IDX 6 1 7 2 8 3 9 4 10 5 11 6 12 7 5 8 4 9 3 10 2 11 1 12
REMARK H PARENT
REMARK INDEX MAP 6 1 5 2 4 3 3 4 1 5 2 6 12 7 7 8 8 9 9 10 10 11 11 12
ROOT
ATOM      1  C   UNL     1      47.336  34.375  28.092  1.00  0.00     0.000 C 
ENDROOT
BRANCH   1   2
ATOM      2  C   UNL     1      48.266  34.036  27.001  1.00  0.00     0.000 C 
BRANCH   2   3
ATOM      3  C   UNL     1      47.604  33.289  25.833  1.00  0.00     0.006 C 
BRANCH   3   4
ATOM      4  C   UNL     1      46.166  33.552  25.608  1.00  0.00     0.053 C 
BRANCH   4   5
ATOM      5  C   UNL     1      45.784  34.389  24.394  1.00  0.00     0.041 C 
ATOM      6  O   UNL     1      44.750  34.091  23.740  1.00  0.00    -0.550 OA
ATOM      7  O   UNL     1      46.501  35.378  24.094  1.00  0.00    -0.550 OA
ENDBRANCH   4   5
ENDBRANCH   3   4
ENDBRANCH   2   3
ENDBRANCH   1   2
BRANCH   1   8
ATOM      8  C   UNL     1      47.686  35.257  29.144  1.00  0.00     0.000 C 
BRANCH   8   9
ATOM      9  C   UNL     1      48.631  36.376  28.975  1.00  0.00    -0.000 C 
BRANCH   9  10
ATOM     10  C   UNL     1      47.993  37.653  28.661  1.00  0.00    -0.000 C 
BRANCH  10  11
ATOM     11  C   UNL     1      48.227  38.291  27.443  1.00  0.00    -0.003 C 
ATOM     12  C   UNL     1      47.910  37.685  26.177  1.00  0.00     0.004 C 
ENDBRANCH  10  11
ENDBRANCH   9  10
ENDBRANCH   8   9
ENDBRANCH   1   8
TORSDOF 8
ENDMDL
MODEL 14
REMARK VINA RESULT:    -4.142      1.332      3.311
REMARK INTER + INTRA:          -6.665
REMARK INTER:                  -5.794
REMARK INTRA:                  -0.871
REMARK UNBOUND:                -0.586
REMARK SMILES CCCCCCCCCC(=O)[O-]
REMARK SMILES IDX 6 1 7 2 8 3 9 4 10 5 11 6 12 7 5 8 4 9 3 10 2 11 1 12
REMARK H PARENT
REMARK INDEX MAP 6 1 5 2 4 3 3 4 1 5 2 6 12 7 7 8 8 9 9 10 10 11 11 12
ROOT
ATOM      1  C   UNL     1      48.746  33.387  26.838  1.00  0.00     0.000 C 
ENDROOT
BRANCH   1   2
ATOM      2  C   UNL     1      47.938  32.882  27.962  1.00  0.00     0.000 C 
BRANCH   2   3
ATOM      3  C   UNL     1      47.625  33.944  29.026  1.00  0.00     0.006 C 
BRANCH   3   4
ATOM      4  C   UNL     1      48.485  35.148  29.034  1.00  0.00     0.053 C 
BRANCH   4   5
ATOM      5  C   UNL     1      48.251  36.175  30.135  1.00  0.00     0.041 C 
ATOM      6  O   UNL     1      47.366  37.057  29.976  1.00  0.00    -0.550 OA
ATOM      7  O   UNL     1      48.932  36.096  31.188  1.00  0.00    -0.550 OA
ENDBRANCH   4   5
ENDBRANCH   3   4
ENDBRANCH   2   3
ENDBRANCH   1   2
BRANCH   1   8
ATOM      8  C   UNL     1      48.185  33.690  25.573  1.00  0.00     0.000 C 
BRANCH   8   9
ATOM      9  C   UNL     1      46.774  34.075  25.390  1.00  0.00    -0.000 C 
BRANCH   9  10
ATOM     10  C   UNL     1      46.569  35.506  25.178  1.00  0.00    -0.000 C 
BRANCH  10  11
ATOM     11  C   UNL     1      47.507  36.439  25.623  1.00  0.00    -0.003 C 
ATOM     12  C   UNL     1      47.164  37.522  26.506  1.00  0.00     0.004 C 
ENDBRANCH  10  11
ENDBRANCH   9  10
ENDBRANCH   8   9
ENDBRANCH   1   8
TORSDOF 8
ENDMDL
MODEL 15
REMARK VINA RESULT:    -4.136      3.228      4.923
REMARK INTER + INTRA:          -6.656
REMARK INTER:                  -6.355
REMARK INTRA:                  -0.302
REMARK UNBOUND:                -0.586
REMARK SMILES CCCCCCCCCC(=O)[O-]
REMARK SMILES IDX 6 1 7 2 8 3 9 4 10 5 11 6 12 7 5 8 4 9 3 10 2 11 1 12
REMARK H PARENT
REMARK INDEX MAP 6 1 5 2 4 3 3 4 1 5 2 6 12 7 7 8 8 9 9 10 10 11 11 12
ROOT
ATOM      1  C   UNL     1      47.990  35.499  29.907  1.00  0.00     0.000 C 
ENDROOT
BRANCH   1   2
ATOM      2  C   UNL     1      47.861  35.695  31.362  1.00  0.00     0.000 C 
BRANCH   2   3
ATOM      3  C   UNL     1      47.528  34.409  32.133  1.00  0.00     0.006 C 
BRANCH   3   4
ATOM      4  C   UNL     1      46.965  34.577  33.491  1.00  0.00     0.053 C 
BRANCH   4   5
ATOM      5  C   UNL     1      45.567  34.030  33.747  1.00  0.00     0.041 C 
ATOM      6  O   UNL     1      44.863  33.657  32.772  1.00  0.00    -0.550 OA
ATOM      7  O   UNL     1      45.163  33.939  34.934  1.00  0.00    -0.550 OA
ENDBRANCH   4   5
ENDBRANCH   3   4
ENDBRANCH   2   3
ENDBRANCH   1   2
BRANCH   1   8
ATOM      8  C   UNL     1      48.360  36.546  29.027  1.00  0.00     0.000 C 
BRANCH   8   9
ATOM      9  C   UNL     1      47.388  37.280  28.197  1.00  0.00    -0.000 C 
BRANCH   9  10
ATOM     10  C   UNL     1      47.819  37.486  26.816  1.00  0.00    -0.000 C 
BRANCH  10  11
ATOM     11  C   UNL     1      47.863  36.423  25.912  1.00  0.00    -0.003 C 
ATOM     12  C   UNL     1      46.674  35.815  25.375  1.00  0.00     0.004 C 
ENDBRANCH  10  11
ENDBRANCH   9  10
ENDBRANCH   8   9
ENDBRANCH   1   8
TORSDOF 8
ENDMDL
MODEL 16
REMARK VINA RESULT:    -4.082      8.532      9.788
REMARK INTER + INTRA:          -6.576
REMARK INTER:                  -5.986
REMARK INTRA:                  -0.591
REMARK UNBOUND:                -0.586
REMARK SMILES CCCCCCCCCC(=O)[O-]
REMARK SMILES IDX 6 1 7 2 8 3 9 4 10 5 11 6 12 7 5 8 4 9 3 10 2 11 1 12
REMARK H PARENT
REMARK INDEX MAP 6 1 5 2 4 3 3 4 1 5 2 6 12 7 7 8 8 9 9 10 10 11 11 12
ROOT
ATOM      1  C   UNL     1      48.581  29.853  34.641  1.00  0.00     0.000 C 
ENDROOT
BRANCH   1   2
ATOM      2  C   UNL     1      47.934  31.061  34.100  1.00  0.00     0.000 C 
BRANCH   2   3
ATOM      3  C   UNL     1      46.441  30.880  33.792  1.00  0.00     0.006 C 
BRANCH   3   4
ATOM      4  C   UNL     1      45.501  31.758  34.523  1.00  0.00     0.053 C 
BRANCH   4   5
ATOM      5  C   UNL     1      45.379  33.203  34.058  1.00  0.00     0.041 C 
ATOM      6  O   UNL     1      45.036  33.441  32.870  1.00  0.00    -0.550 OA
ATOM      7  O   UNL     1      45.598  34.124  34.886  1.00  0.00    -0.550 OA
ENDBRANCH   4   5
ENDBRANCH   3   4
ENDBRANCH   2   3
ENDBRANCH   1   2
BRANCH   1   8
ATOM      8  C   UNL     1      47.866  28.863  35.358  1.00  0.00     0.000 C 
BRANCH   8   9
ATOM      9  C   UNL     1      48.143  27.420  35.232  1.00  0.00    -0.000 C 
BRANCH   9  10
ATOM     10  C   UNL     1      46.982  26.623  34.842  1.00  0.00    -0.000 C 
BRANCH  10  11
ATOM     11  C   UNL     1      46.240  26.943  33.705  1.00  0.00    -0.003 C 
ATOM     12  C   UNL     1      45.144  26.134  33.242  1.00  0.00     0.004 C 
ENDBRANCH  10  11
ENDBRANCH   9  10
ENDBRANCH   8   9
ENDBRANCH   1   8
TORSDOF 8
ENDMDL
MODEL 17
REMARK VINA RESULT:    -4.076      3.668      6.077
REMARK INTER + INTRA:          -6.568
REMARK INTER:                  -6.220
REMARK INTRA:                  -0.348
REMARK UNBOUND:                -0.586
REMARK SMILES CCCCCCCCCC(=O)[O-]
REMARK SMILES IDX 6 1 7 2 8 3 9 4 10 5 11 6 12 7 5 8 4 9 3 10 2 11 1 12
REMARK H PARENT
REMARK INDEX MAP 6 1 5 2 4 3 3 4 1 5 2 6 12 7 7 8 8 9 9 10 10 11 11 12
ROOT
ATOM      1  C   UNL     1      48.580  33.940  25.733  1.00  0.00     0.000 C 
ENDROOT
BRANCH   1   2
ATOM      2  C   UNL     1      49.334  32.840  25.107  1.00  0.00     0.000 C 
BRANCH   2   3
ATOM      3  C   UNL     1      50.788  32.730  25.592  1.00  0.00     0.006 C 
BRANCH   3   4
ATOM      4  C   UNL     1      51.680  31.842  24.815  1.00  0.00     0.053 C 
BRANCH   4   5
ATOM      5  C   UNL     1      53.154  31.813  25.198  1.00  0.00     0.041 C 
ATOM      6  O   UNL     1      53.832  32.870  25.120  1.00  0.00    -0.550 OA
ATOM      7  O   UNL     1      53.648  30.732  25.611  1.00  0.00    -0.550 OA
ENDBRANCH   4   5
ENDBRANCH   3   4
ENDBRANCH   2   3
ENDBRANCH   1   2
BRANCH   1   8
ATOM      8  C   UNL     1      47.224  34.207  25.423  1.00  0.00     0.000 C 
BRANCH   8   9
ATOM      9  C   UNL     1      46.646  35.563  25.445  1.00  0.00    -0.000 C 
BRANCH   9  10
ATOM     10  C   UNL     1      47.610  36.618  25.747  1.00  0.00    -0.000 C 
BRANCH  10  11
ATOM     11  C   UNL     1      47.381  37.524  26.784  1.00  0.00    -0.003 C 
ATOM     12  C   UNL     1      48.110  37.481  28.024  1.00  0.00     0.004 C 
ENDBRANCH  10  11
ENDBRANCH   9  10
ENDBRANCH   8   9
ENDBRANCH   1   8
TORSDOF 8
ENDMDL
MODEL 18
REMARK VINA RESULT:    -4.008      3.618      6.103
REMARK INTER + INTRA:          -6.469
REMARK INTER:                  -6.078
REMARK INTRA:                  -0.390
REMARK UNBOUND:                -0.586
REMARK SMILES CCCCCCCCCC(=O)[O-]
REMARK SMILES IDX 6 1 7 2 8 3 9 4 10 5 11 6 12 7 5 8 4 9 3 10 2 11 1 12
REMARK H PARENT
REMARK INDEX MAP 6 1 5 2 4 3 3 4 1 5 2 6 12 7 7 8 8 9 9 10 10 11 11 12
ROOT
ATOM      1  C   UNL     1      48.568  33.924  25.660  1.00  0.00     0.000 C 
ENDROOT
BRANCH   1   2
ATOM      2  C   UNL     1      49.264  32.761  25.081  1.00  0.00     0.000 C 
BRANCH   2   3
ATOM      3  C   UNL     1      50.774  32.741  25.361  1.00  0.00     0.006 C 
BRANCH   3   4
ATOM      4  C   UNL     1      51.553  31.660  24.718  1.00  0.00     0.053 C 
BRANCH   4   5
ATOM      5  C   UNL     1      50.844  30.337  24.460  1.00  0.00     0.041 C 
ATOM      6  O   UNL     1      50.589  29.575  25.429  1.00  0.00    -0.550 OA
ATOM      7  O   UNL     1      50.505  30.054  23.282  1.00  0.00    -0.550 OA
ENDBRANCH   4   5
ENDBRANCH   3   4
ENDBRANCH   2   3
ENDBRANCH   1   2
BRANCH   1   8
ATOM      8  C   UNL     1      47.213  34.221  25.372  1.00  0.00     0.000 C 
BRANCH   8   9
ATOM      9  C   UNL     1      46.666  35.589  25.400  1.00  0.00    -0.000 C 
BRANCH   9  10
ATOM     10  C   UNL     1      47.637  36.613  25.778  1.00  0.00    -0.000 C 
BRANCH  10  11
ATOM     11  C   UNL     1      47.392  37.474  26.849  1.00  0.00    -0.003 C 
ATOM     12  C   UNL     1      48.077  37.356  28.109  1.00  0.00     0.004 C 
ENDBRANCH  10  11
ENDBRANCH   9  10
ENDBRANCH   8   9
ENDBRANCH   1   8
TORSDOF 8
ENDMDL
MODEL 19
REMARK VINA RESULT:    -3.966      2.852      4.887
REMARK INTER + INTRA:          -6.406
REMARK INTER:                  -5.801
REMARK INTRA:                  -0.605
REMARK UNBOUND:                -0.586
REMARK SMILES CCCCCCCCCC(=O)[O-]
REMARK SMILES IDX 6 1 7 2 8 3 9 4 10 5 11 6 12 7 5 8 4 9 3 10 2 11 1 12
REMARK H PARENT
REMARK INDEX MAP 6 1 5 2 4 3 3 4 1 5 2 6 12 7 7 8 8 9 9 10 10 11 11 12
ROOT
ATOM      1  C   UNL     1      46.200  34.235  25.866  1.00  0.00     0.000 C 
ENDROOT
BRANCH   1   2
ATOM      2  C   UNL     1      47.192  33.540  26.705  1.00  0.00     0.000 C 
BRANCH   2   3
ATOM      3  C   UNL     1      46.602  32.932  27.987  1.00  0.00     0.006 C 
BRANCH   3   4
ATOM      4  C   UNL     1      46.039  31.568  27.875  1.00  0.00     0.053 C 
BRANCH   4   5
ATOM      5  C   UNL     1      45.156  31.074  29.014  1.00  0.00     0.041 C 
ATOM      6  O   UNL     1      44.585  29.957  28.911  1.00  0.00    -0.550 OA
ATOM      7  O   UNL     1      45.044  31.789  30.043  1.00  0.00    -0.550 OA
ENDBRANCH   4   5
ENDBRANCH   3   4
ENDBRANCH   2   3
ENDBRANCH   1   2
BRANCH   1   8
ATOM      8  C   UNL     1      46.467  35.480  25.245  1.00  0.00     0.000 C 
BRANCH   8   9
ATOM      9  C   UNL     1      47.600  36.343  25.626  1.00  0.00    -0.000 C 
BRANCH   9  10
ATOM     10  C   UNL     1      47.240  37.437  26.526  1.00  0.00    -0.000 C 
BRANCH  10  11
ATOM     11  C   UNL     1      47.930  37.637  27.722  1.00  0.00    -0.003 C 
ATOM     12  C   UNL     1      47.612  36.920  28.928  1.00  0.00     0.004 C 
ENDBRANCH  10  11
ENDBRANCH   9  10
ENDBRANCH   8   9
ENDBRANCH   1   8
TORSDOF 8
ENDMDL
MODEL 20
REMARK VINA RESULT:    -3.922      2.129      3.677
REMARK INTER + INTRA:          -6.342
REMARK INTER:                  -5.758
REMARK INTRA:                  -0.584
REMARK UNBOUND:                -0.586
REMARK SMILES CCCCCCCCCC(=O)[O-]
REMARK SMILES IDX 6 1 7 2 8 3 9 4 10 5 11 6 12 7 5 8 4 9 3 10 2 11 1 12
REMARK H PARENT
REMARK INDEX MAP 6 1 5 2 4 3 3 4 1 5 2 6 12 7 7 8 8 9 9 10 10 11 11 12
ROOT
ATOM      1  C   UNL     1      47.527  34.673  28.930  1.00  0.00     0.000 C 
ENDROOT
BRANCH   1   2
ATOM      2  C   UNL     1      48.664  35.532  29.305  1.00  0.00     0.000 C 
BRANCH   2   3
ATOM      3  C   UNL     1      48.943  35.565  30.815  1.00  0.00     0.006 C 
BRANCH   3   4
ATOM      4  C   UNL     1      47.951  34.898  31.687  1.00  0.00     0.053 C 
BRANCH   4   5
ATOM      5  C   UNL     1      47.157  35.772  32.649  1.00  0.00     0.041 C 
ATOM      6  O   UNL     1      45.936  35.529  32.838  1.00  0.00    -0.550 OA
ATOM      7  O   UNL     1      47.753  36.701  33.251  1.00  0.00    -0.550 OA
ENDBRANCH   4   5
ENDBRANCH   3   4
ENDBRANCH   2   3
ENDBRANCH   1   2
BRANCH   1   8
ATOM      8  C   UNL     1      47.285  34.270  27.593  1.00  0.00     0.000 C 
BRANCH   8   9
ATOM      9  C   UNL     1      48.268  34.448  26.509  1.00  0.00    -0.000 C 
BRANCH   9  10
ATOM     10  C   UNL     1      47.939  35.524  25.577  1.00  0.00    -0.000 C 
BRANCH  10  11
ATOM     11  C   UNL     1      47.242  36.655  26.003  1.00  0.00    -0.003 C 
ATOM     12  C   UNL     1      47.885  37.924  26.221  1.00  0.00     0.004 C 
ENDBRANCH  10  11
ENDBRANCH   9  10
ENDBRANCH   8   9
ENDBRANCH   1   8
TORSDOF 8
ENDMDL
