MODEL 1
REMARK VINA RESULT:    -4.689      0.000      0.000
REMARK INTER + INTRA:          -7.829
REMARK INTER:                  -7.019
REMARK INTRA:                  -0.809
REMARK UNBOUND:                -0.809
REMARK SMILES CCCCCCCCCC(=O)O
REMARK SMILES IDX 7 1 8 2 9 3 10 4 11 5 12 6 6 8 5 9 4 10 3 11 2 12 1 13
REMARK H PARENT 12 7
REMARK INDEX MAP 5 1 4 2 3 3 1 4 2 5 12 6 32 7 6 8 7 9 8 10 9 11 10 12 11 13
ROOT
ATOM      1  C   UNL     1      48.227  38.133  27.873  1.00  0.00     0.001 C 
ENDROOT
BRANCH   1   2
ATOM      2  C   UNL     1      47.628  37.162  28.901  1.00  0.00     0.012 C 
BRANCH   2   3
ATOM      3  C   UNL     1      48.555  36.175  29.499  1.00  0.00     0.122 C 
BRANCH   3   4
ATOM      4  C   UNL     1      48.329  34.705  29.168  1.00  0.00     0.303 C 
ATOM      5  O   UNL     1      47.160  34.296  28.946  1.00  0.00    -0.252 OA
BRANCH   4   6
ATOM      6  O   UNL     1      49.327  33.943  29.099  1.00  0.00    -0.481 OA
ATOM      7  H   UNL     1      49.243  32.992  29.362  1.00  0.00     0.296 HD
ENDBRANCH   4   6
ENDBRANCH   3   4
ENDBRANCH   2   3
ENDBRANCH   1   2
BRANCH   1   8
ATOM      8  C   UNL     1      47.779  37.887  26.492  1.00  0.00     0.000 C 
BRANCH   8   9
ATOM      9  C   UNL     1      47.912  36.626  25.861  1.00  0.00     0.000 C 
BRANCH   9  10
ATOM     10  C   UNL     1      46.763  35.753  25.556  1.00  0.00    -0.000 C 
BRANCH  10  11
ATOM     11  C   UNL     1      47.118  34.352  25.346  1.00  0.00    -0.000 C 
BRANCH  11  12
ATOM     12  C   UNL     1      48.421  33.902  25.561  1.00  0.00    -0.003 C 
ATOM     13  C   UNL     1      48.932  32.694  24.968  1.00  0.00     0.004 C 
ENDBRANCH  11  12
ENDBRANCH  10  11
ENDBRANCH   9  10
ENDBRANCH   8   9
ENDBRANCH   1   8
TORSDOF 9
ENDMDL
MODEL 2
REMARK VINA RESULT:    -4.657      2.402      3.289
REMARK INTER + INTRA:          -7.780
REMARK INTER:                  -7.358
REMARK INTRA:                  -0.422
REMARK UNBOUND:                -0.809
REMARK SMILES CCCCCCCCCC(=O)O
REMARK SMILES IDX 7 1 8 2 9 3 10 4 11 5 12 6 6 8 5 9 4 10 3 11 2 12 1 13
REMARK H PARENT 12 7
REMARK INDEX MAP 5 1 4 2 3 3 1 4 2 5 12 6 32 7 6 8 7 9 8 10 9 11 10 12 11 13
ROOT
ATOM      1  C   UNL     1      48.636  36.226  29.555  1.00  0.00     0.001 C 
ENDROOT
BRANCH   1   2
ATOM      2  C   UNL     1      47.904  35.327  30.562  1.00  0.00     0.012 C 
BRANCH   2   3
ATOM      3  C   UNL     1      48.090  35.650  31.995  1.00  0.00     0.122 C 
BRANCH   3   4
ATOM      4  C   UNL     1      46.907  36.250  32.742  1.00  0.00     0.303 C 
ATOM      5  O   UNL     1      45.810  35.633  32.757  1.00  0.00    -0.252 OA
BRANCH   4   6
ATOM      6  O   UNL     1      47.067  37.340  33.349  1.00  0.00    -0.481 OA
ATOM      7  H   UNL     1      46.528  38.131  33.097  1.00  0.00     0.296 HD
ENDBRANCH   4   6
ENDBRANCH   3   4
ENDBRANCH   2   3
ENDBRANCH   1   2
BRANCH   1   8
ATOM      8  C   UNL     1      47.757  37.186  28.865  1.00  0.00     0.000 C 
BRANCH   8   9
ATOM      9  C   UNL     1      48.234  38.085  27.880  1.00  0.00     0.000 C 
BRANCH   9  10
ATOM     10  C   UNL     1      47.883  37.975  26.452  1.00  0.00    -0.000 C 
BRANCH  10  11
ATOM     11  C   UNL     1      47.958  36.615  25.923  1.00  0.00    -0.000 C 
BRANCH  11  12
ATOM     12  C   UNL     1      46.804  35.929  25.541  1.00  0.00    -0.003 C 
ATOM     13  C   UNL     1      46.809  34.527  25.219  1.00  0.00     0.004 C 
ENDBRANCH  11  12
ENDBRANCH  10  11
ENDBRANCH   9  10
ENDBRANCH   8   9
ENDBRANCH   1   8
TORSDOF 9
ENDMDL
MODEL 3
REMARK VINA RESULT:    -4.618      2.215      2.824
REMARK INTER + INTRA:          -7.722
REMARK INTER:                  -7.007
REMARK INTRA:                  -0.715
REMARK UNBOUND:                -0.809
REMARK SMILES CCCCCCCCCC(=O)O
REMARK SMILES IDX 7 1 8 2 9 3 10 4 11 5 12 6 6 8 5 9 4 10 3 11 2 12 1 13
REMARK H PARENT 12 7
REMARK INDEX MAP 5 1 4 2 3 3 1 4 2 5 12 6 32 7 6 8 7 9 8 10 9 11 10 12 11 13
ROOT
ATOM      1  C   UNL     1      47.527  37.060  29.174  1.00  0.00     0.001 C 
ENDROOT
BRANCH   1   2
ATOM      2  C   UNL     1      48.456  36.158  29.999  1.00  0.00     0.012 C 
BRANCH   2   3
ATOM      3  C   UNL     1      47.829  35.388  31.096  1.00  0.00     0.122 C 
BRANCH   3   4
ATOM      4  C   UNL     1      48.105  35.841  32.524  1.00  0.00     0.303 C 
ATOM      5  O   UNL     1      49.198  36.404  32.791  1.00  0.00    -0.252 OA
BRANCH   4   6
ATOM      6  O   UNL     1      47.216  35.662  33.395  1.00  0.00    -0.481 OA
ATOM      7  H   UNL     1      46.284  35.943  33.216  1.00  0.00     0.296 HD
ENDBRANCH   4   6
ENDBRANCH   3   4
ENDBRANCH   2   3
ENDBRANCH   1   2
BRANCH   1   8
ATOM      8  C   UNL     1      48.227  37.856  28.150  1.00  0.00     0.000 C 
BRANCH   8   9
ATOM      9  C   UNL     1      47.864  37.826  26.782  1.00  0.00     0.000 C 
BRANCH   9  10
ATOM     10  C   UNL     1      48.086  36.654  25.916  1.00  0.00    -0.000 C 
BRANCH  10  11
ATOM     11  C   UNL     1      46.858  35.983  25.495  1.00  0.00    -0.000 C 
BRANCH  11  12
ATOM     12  C   UNL     1      46.592  34.668  25.878  1.00  0.00    -0.003 C 
ATOM     13  C   UNL     1      47.190  34.064  27.039  1.00  0.00     0.004 C 
ENDBRANCH  11  12
ENDBRANCH  10  11
ENDBRANCH   9  10
ENDBRANCH   8   9
ENDBRANCH   1   8
TORSDOF 9
ENDMDL
MODEL 4
REMARK VINA RESULT:    -4.607      0.772      1.424
REMARK INTER + INTRA:          -7.706
REMARK INTER:                  -7.101
REMARK INTRA:                  -0.605
REMARK UNBOUND:                -0.809
REMARK SMILES CCCCCCCCCC(=O)O
REMARK SMILES IDX 7 1 8 2 9 3 10 4 11 5 12 6 6 8 5 9 4 10 3 11 2 12 1 13
REMARK H PARENT 12 7
REMARK INDEX MAP 5 1 4 2 3 3 1 4 2 5 12 6 32 7 6 8 7 9 8 10 9 11 10 12 11 13
ROOT
ATOM      1  C   UNL     1      47.537  37.879  26.624  1.00  0.00     0.001 C 
ENDROOT
BRANCH   1   2
ATOM      2  C   UNL     1      48.228  37.851  27.995  1.00  0.00     0.012 C 
BRANCH   2   3
ATOM      3  C   UNL     1      47.525  37.124  29.076  1.00  0.00     0.122 C 
BRANCH   3   4
ATOM      4  C   UNL     1      48.042  35.740  29.446  1.00  0.00     0.303 C 
ATOM      5  O   UNL     1      47.331  34.731  29.199  1.00  0.00    -0.252 OA
BRANCH   4   6
ATOM      6  O   UNL     1      49.182  35.641  29.966  1.00  0.00    -0.481 OA
ATOM      7  H   UNL     1      49.366  34.924  30.623  1.00  0.00     0.296 HD
ENDBRANCH   4   6
ENDBRANCH   3   4
ENDBRANCH   2   3
ENDBRANCH   1   2
BRANCH   1   8
ATOM      8  C   UNL     1      47.778  36.673  25.812  1.00  0.00     0.000 C 
BRANCH   8   9
ATOM      9  C   UNL     1      46.795  35.669  25.629  1.00  0.00     0.000 C 
BRANCH   9  10
ATOM     10  C   UNL     1      47.122  34.238  25.500  1.00  0.00    -0.000 C 
BRANCH  10  11
ATOM     11  C   UNL     1      48.552  33.944  25.563  1.00  0.00    -0.000 C 
BRANCH  11  12
ATOM     12  C   UNL     1      49.061  32.747  25.058  1.00  0.00    -0.003 C 
ATOM     13  C   UNL     1      50.470  32.454  25.035  1.00  0.00     0.004 C 
ENDBRANCH  11  12
ENDBRANCH  10  11
ENDBRANCH   9  10
ENDBRANCH   8   9
ENDBRANCH   1   8
TORSDOF 9
ENDMDL
MODEL 5
REMARK VINA RESULT:    -4.568      1.301      1.599
REMARK INTER + INTRA:          -7.647
REMARK INTER:                  -6.850
REMARK INTRA:                  -0.797
REMARK UNBOUND:                -0.809
REMARK SMILES CCCCCCCCCC(=O)O
REMARK SMILES IDX 7 1 8 2 9 3 10 4 11 5 12 6 6 8 5 9 4 10 3 11 2 12 1 13
REMARK H PARENT 12 7
REMARK INDEX MAP 5 1 4 2 3 3 1 4 2 5 12 6 32 7 6 8 7 9 8 10 9 11 10 12 11 13
ROOT
ATOM      1  C   UNL     1      48.256  37.858  28.067  1.00  0.00     0.001 C 
ENDROOT
BRANCH   1   2
ATOM      2  C   UNL     1      47.539  36.990  29.112  1.00  0.00     0.012 C 
BRANCH   2   3
ATOM      3  C   UNL     1      48.174  35.695  29.446  1.00  0.00     0.122 C 
BRANCH   3   4
ATOM      4  C   UNL     1      49.141  35.667  30.622  1.00  0.00     0.303 C 
ATOM      5  O   UNL     1      50.272  35.134  30.477  1.00  0.00    -0.252 OA
BRANCH   4   6
ATOM      6  O   UNL     1      48.790  36.204  31.703  1.00  0.00    -0.481 OA
ATOM      7  H   UNL     1      47.928  36.688  31.759  1.00  0.00     0.296 HD
ENDBRANCH   4   6
ENDBRANCH   3   4
ENDBRANCH   2   3
ENDBRANCH   1   2
BRANCH   1   8
ATOM      8  C   UNL     1      47.647  37.799  26.727  1.00  0.00     0.000 C 
BRANCH   8   9
ATOM      9  C   UNL     1      47.878  36.726  25.832  1.00  0.00     0.000 C 
BRANCH   9  10
ATOM     10  C   UNL     1      46.827  35.773  25.431  1.00  0.00    -0.000 C 
BRANCH  10  11
ATOM     11  C   UNL     1      46.951  34.455  26.049  1.00  0.00    -0.000 C 
BRANCH  11  12
ATOM     12  C   UNL     1      48.201  33.862  26.233  1.00  0.00    -0.003 C 
ATOM     13  C   UNL     1      48.926  33.238  25.158  1.00  0.00     0.004 C 
ENDBRANCH  11  12
ENDBRANCH  10  11
ENDBRANCH   9  10
ENDBRANCH   8   9
ENDBRANCH   1   8
TORSDOF 9
ENDMDL
MODEL 6
REMARK VINA RESULT:    -4.560      1.572      1.882
REMARK INTER + INTRA:          -7.636
REMARK INTER:                  -6.992
REMARK INTRA:                  -0.644
REMARK UNBOUND:                -0.809
REMARK SMILES CCCCCCCCCC(=O)O
REMARK SMILES IDX 7 1 8 2 9 3 10 4 11 5 12 6 6 8 5 9 4 10 3 11 2 12 1 13
REMARK H PARENT 12 7
REMARK INDEX MAP 5 1 4 2 3 3 1 4 2 5 12 6 32 7 6 8 7 9 8 10 9 11 10 12 11 13
ROOT
ATOM      1  C   UNL     1      48.359  38.150  27.864  1.00  0.00     0.001 C 
ENDROOT
BRANCH   1   2
ATOM      2  C   UNL     1      47.593  37.233  28.828  1.00  0.00     0.012 C 
BRANCH   2   3
ATOM      3  C   UNL     1      48.374  36.158  29.480  1.00  0.00     0.122 C 
BRANCH   3   4
ATOM      4  C   UNL     1      47.880  35.645  30.827  1.00  0.00     0.303 C 
ATOM      5  O   UNL     1      47.354  34.504  30.897  1.00  0.00    -0.252 OA
BRANCH   4   6
ATOM      6  O   UNL     1      48.037  36.370  31.842  1.00  0.00    -0.481 OA
ATOM      7  H   UNL     1      48.898  36.358  32.331  1.00  0.00     0.296 HD
ENDBRANCH   4   6
ENDBRANCH   3   4
ENDBRANCH   2   3
ENDBRANCH   1   2
BRANCH   1   8
ATOM      8  C   UNL     1      47.942  38.015  26.457  1.00  0.00     0.000 C 
BRANCH   8   9
ATOM      9  C   UNL     1      47.055  37.001  26.020  1.00  0.00     0.000 C 
BRANCH   9  10
ATOM     10  C   UNL     1      47.502  35.648  25.641  1.00  0.00    -0.000 C 
BRANCH  10  11
ATOM     11  C   UNL     1      46.417  34.743  25.270  1.00  0.00    -0.000 C 
BRANCH  11  12
ATOM     12  C   UNL     1      46.113  33.628  26.052  1.00  0.00    -0.003 C 
ATOM     13  C   UNL     1      46.612  33.464  27.392  1.00  0.00     0.004 C 
ENDBRANCH  11  12
ENDBRANCH  10  11
ENDBRANCH   9  10
ENDBRANCH   8   9
ENDBRANCH   1   8
TORSDOF 9
ENDMDL
MODEL 7
REMARK VINA RESULT:    -4.477      1.260      2.428
REMARK INTER + INTRA:          -7.510
REMARK INTER:                  -6.987
REMARK INTRA:                  -0.523
REMARK UNBOUND:                -0.809
REMARK SMILES CCCCCCCCCC(=O)O
REMARK SMILES IDX 7 1 8 2 9 3 10 4 11 5 12 6 6 8 5 9 4 10 3 11 2 12 1 13
REMARK H PARENT 12 7
REMARK INDEX MAP 5 1 4 2 3 3 1 4 2 5 12 6 32 7 6 8 7 9 8 10 9 11 10 12 11 13
ROOT
ATOM      1  C   UNL     1      47.803  36.654  25.791  1.00  0.00     0.001 C 
ENDROOT
BRANCH   1   2
ATOM      2  C   UNL     1      47.509  37.684  26.892  1.00  0.00     0.012 C 
BRANCH   2   3
ATOM      3  C   UNL     1      48.242  37.518  28.167  1.00  0.00     0.122 C 
BRANCH   3   4
ATOM      4  C   UNL     1      47.563  36.721  29.273  1.00  0.00     0.303 C 
ATOM      5  O   UNL     1      47.175  37.315  30.312  1.00  0.00    -0.252 OA
BRANCH   4   6
ATOM      6  O   UNL     1      47.384  35.488  29.103  1.00  0.00    -0.481 OA
ATOM      7  H   UNL     1      46.478  35.101  29.202  1.00  0.00     0.296 HD
ENDBRANCH   4   6
ENDBRANCH   3   4
ENDBRANCH   2   3
ENDBRANCH   1   2
BRANCH   1   8
ATOM      8  C   UNL     1      46.714  35.685  25.577  1.00  0.00     0.000 C 
BRANCH   8   9
ATOM      9  C   UNL     1      46.954  34.338  25.209  1.00  0.00     0.000 C 
BRANCH   9  10
ATOM     10  C   UNL     1      47.864  33.450  25.955  1.00  0.00    -0.000 C 
BRANCH  10  11
ATOM     11  C   UNL     1      48.303  32.278  25.201  1.00  0.00    -0.000 C 
BRANCH  11  12
ATOM     12  C   UNL     1      49.619  32.167  24.749  1.00  0.00    -0.003 C 
ATOM     13  C   UNL     1      50.705  32.900  25.343  1.00  0.00     0.004 C 
ENDBRANCH  11  12
ENDBRANCH  10  11
ENDBRANCH   9  10
ENDBRANCH   8   9
ENDBRANCH   1   8
TORSDOF 9
ENDMDL
MODEL 8
REMARK VINA RESULT:    -4.419      1.392      2.085
REMARK INTER + INTRA:          -7.425
REMARK INTER:                  -6.715
REMARK INTRA:                  -0.710
REMARK UNBOUND:                -0.809
REMARK SMILES CCCCCCCCCC(=O)O
REMARK SMILES IDX 7 1 8 2 9 3 10 4 11 5 12 6 6 8 5 9 4 10 3 11 2 12 1 13
REMARK H PARENT 12 7
REMARK INDEX MAP 5 1 4 2 3 3 1 4 2 5 12 6 32 7 6 8 7 9 8 10 9 11 10 12 11 13
ROOT
ATOM      1  C   UNL     1      47.682  37.131  29.099  1.00  0.00     0.001 C 
ENDROOT
BRANCH   1   2
ATOM      2  C   UNL     1      48.546  35.952  29.571  1.00  0.00     0.012 C 
BRANCH   2   3
ATOM      3  C   UNL     1      48.416  34.689  28.811  1.00  0.00     0.122 C 
BRANCH   3   4
ATOM      4  C   UNL     1      47.335  33.710  29.250  1.00  0.00     0.303 C 
ATOM      5  O   UNL     1      47.237  33.405  30.468  1.00  0.00    -0.252 OA
BRANCH   4   6
ATOM      6  O   UNL     1      46.548  33.252  28.383  1.00  0.00    -0.481 OA
ATOM      7  H   UNL     1      45.672  33.687  28.230  1.00  0.00     0.296 HD
ENDBRANCH   4   6
ENDBRANCH   3   4
ENDBRANCH   2   3
ENDBRANCH   1   2
BRANCH   1   8
ATOM      8  C   UNL     1      48.346  37.996  28.109  1.00  0.00     0.000 C 
BRANCH   8   9
ATOM      9  C   UNL     1      47.949  38.042  26.750  1.00  0.00     0.000 C 
BRANCH   9  10
ATOM     10  C   UNL     1      48.043  36.882  25.845  1.00  0.00    -0.000 C 
BRANCH  10  11
ATOM     11  C   UNL     1      46.807  36.112  25.732  1.00  0.00    -0.000 C 
BRANCH  11  12
ATOM     12  C   UNL     1      46.769  34.917  25.011  1.00  0.00    -0.003 C 
ATOM     13  C   UNL     1      45.540  34.227  24.721  1.00  0.00     0.004 C 
ENDBRANCH  11  12
ENDBRANCH  10  11
ENDBRANCH   9  10
ENDBRANCH   8   9
ENDBRANCH   1   8
TORSDOF 9
ENDMDL
MODEL 9
REMARK VINA RESULT:    -4.384      1.616      2.058
REMARK INTER + INTRA:          -7.372
REMARK INTER:                  -6.869
REMARK INTRA:                  -0.502
REMARK UNBOUND:                -0.809
REMARK SMILES CCCCCCCCCC(=O)O
REMARK SMILES IDX 7 1 8 2 9 3 10 4 11 5 12 6 6 8 5 9 4 10 3 11 2 12 1 13
REMARK H PARENT 12 7
REMARK INDEX MAP 5 1 4 2 3 3 1 4 2 5 12 6 32 7 6 8 7 9 8 10 9 11 10 12 11 13
ROOT
ATOM      1  C   UNL     1      47.894  37.986  26.467  1.00  0.00     0.001 C 
ENDROOT
BRANCH   1   2
ATOM      2  C   UNL     1      48.509  37.874  27.870  1.00  0.00     0.012 C 
BRANCH   2   3
ATOM      3  C   UNL     1      47.676  37.228  28.909  1.00  0.00     0.122 C 
BRANCH   3   4
ATOM      4  C   UNL     1      48.321  36.132  29.748  1.00  0.00     0.303 C 
ATOM      5  O   UNL     1      48.514  36.330  30.976  1.00  0.00    -0.252 OA
BRANCH   4   6
ATOM      6  O   UNL     1      48.618  35.044  29.193  1.00  0.00    -0.481 OA
ATOM      7  H   UNL     1      49.242  34.417  29.636  1.00  0.00     0.296 HD
ENDBRANCH   4   6
ENDBRANCH   3   4
ENDBRANCH   2   3
ENDBRANCH   1   2
BRANCH   1   8
ATOM      8  C   UNL     1      46.948  36.903  26.144  1.00  0.00     0.000 C 
BRANCH   8   9
ATOM      9  C   UNL     1      47.347  35.715  25.485  1.00  0.00     0.000 C 
BRANCH   9  10
ATOM     10  C   UNL     1      46.390  34.760  24.896  1.00  0.00    -0.000 C 
BRANCH  10  11
ATOM     11  C   UNL     1      46.208  33.539  25.677  1.00  0.00    -0.000 C 
BRANCH  11  12
ATOM     12  C   UNL     1      46.429  33.530  27.055  1.00  0.00    -0.003 C 
ATOM     13  C   UNL     1      45.985  32.455  27.903  1.00  0.00     0.004 C 
ENDBRANCH  11  12
ENDBRANCH  10  11
ENDBRANCH   9  10
ENDBRANCH   8   9
ENDBRANCH   1   8
TORSDOF 9
ENDMDL
MODEL 10
REMARK VINA RESULT:    -4.342      1.169      3.862
REMARK INTER + INTRA:          -7.309
REMARK INTER:                  -6.582
REMARK INTRA:                  -0.727
REMARK UNBOUND:                -0.809
REMARK SMILES CCCCCCCCCC(=O)O
REMARK SMILES IDX 7 1 8 2 9 3 10 4 11 5 12 6 6 8 5 9 4 10 3 11 2 12 1 13
REMARK H PARENT 12 7
REMARK INDEX MAP 5 1 4 2 3 3 1 4 2 5 12 6 32 7 6 8 7 9 8 10 9 11 10 12 11 13
ROOT
ATOM      1  C   UNL     1      46.710  35.841  25.529  1.00  0.00     0.001 C 
ENDROOT
BRANCH   1   2
ATOM      2  C   UNL     1      47.001  34.370  25.200  1.00  0.00     0.012 C 
BRANCH   2   3
ATOM      3  C   UNL     1      46.535  33.366  26.182  1.00  0.00     0.122 C 
BRANCH   3   4
ATOM      4  C   UNL     1      47.171  33.385  27.566  1.00  0.00     0.303 C 
ATOM      5  O   UNL     1      48.425  33.344  27.668  1.00  0.00    -0.252 OA
BRANCH   4   6
ATOM      6  O   UNL     1      46.422  33.470  28.572  1.00  0.00    -0.481 OA
ATOM      7  H   UNL     1      45.510  33.087  28.544  1.00  0.00     0.296 HD
ENDBRANCH   4   6
ENDBRANCH   3   4
ENDBRANCH   2   3
ENDBRANCH   1   2
BRANCH   1   8
ATOM      8  C   UNL     1      47.912  36.625  25.864  1.00  0.00     0.000 C 
BRANCH   8   9
ATOM      9  C   UNL     1      47.843  37.905  26.467  1.00  0.00     0.000 C 
BRANCH   9  10
ATOM     10  C   UNL     1      48.257  38.162  27.859  1.00  0.00    -0.000 C 
BRANCH  10  11
ATOM     11  C   UNL     1      47.696  37.226  28.830  1.00  0.00    -0.000 C 
BRANCH  11  12
ATOM     12  C   UNL     1      48.514  36.324  29.512  1.00  0.00    -0.003 C 
ATOM     13  C   UNL     1      48.105  35.675  30.730  1.00  0.00     0.004 C 
ENDBRANCH  11  12
ENDBRANCH  10  11
ENDBRANCH   9  10
ENDBRANCH   8   9
ENDBRANCH   1   8
TORSDOF 9
ENDMDL
MODEL 11
REMARK VINA RESULT:    -4.290      2.384      4.746
REMARK INTER + INTRA:          -7.231
REMARK INTER:                  -6.767
REMARK INTRA:                  -0.465
REMARK UNBOUND:                -0.809
REMARK SMILES CCCCCCCCCC(=O)O
REMARK SMILES IDX 7 1 8 2 9 3 10 4 11 5 12 6 6 8 5 9 4 10 3 11 2 12 1 13
REMARK H PARENT 12 7
REMARK INDEX MAP 5 1 4 2 3 3 1 4 2 5 12 6 32 7 6 8 7 9 8 10 9 11 10 12 11 13
ROOT
ATOM      1  C   UNL     1      47.470  33.913  25.378  1.00  0.00     0.001 C 
ENDROOT
BRANCH   1   2
ATOM      2  C   UNL     1      48.652  32.963  25.137  1.00  0.00     0.012 C 
BRANCH   2   3
ATOM      3  C   UNL     1      49.982  33.434  25.585  1.00  0.00     0.122 C 
BRANCH   3   4
ATOM      4  C   UNL     1      51.195  32.601  25.189  1.00  0.00     0.303 C 
ATOM      5  O   UNL     1      52.327  32.907  25.646  1.00  0.00    -0.252 OA
BRANCH   4   6
ATOM      6  O   UNL     1      51.025  31.609  24.435  1.00  0.00    -0.481 OA
ATOM      7  H   UNL     1      50.530  31.714  23.584  1.00  0.00     0.296 HD
ENDBRANCH   4   6
ENDBRANCH   3   4
ENDBRANCH   2   3
ENDBRANCH   1   2
BRANCH   1   8
ATOM      8  C   UNL     1      47.852  35.192  26.001  1.00  0.00     0.000 C 
BRANCH   8   9
ATOM      9  C   UNL     1      47.048  36.355  25.909  1.00  0.00     0.000 C 
BRANCH   9  10
ATOM     10  C   UNL     1      47.466  37.666  26.436  1.00  0.00    -0.000 C 
BRANCH  10  11
ATOM     11  C   UNL     1      48.196  37.596  27.700  1.00  0.00    -0.000 C 
BRANCH  11  12
ATOM     12  C   UNL     1      47.530  37.342  28.900  1.00  0.00    -0.003 C 
ATOM     13  C   UNL     1      47.772  36.159  29.684  1.00  0.00     0.004 C 
ENDBRANCH  11  12
ENDBRANCH  10  11
ENDBRANCH   9  10
ENDBRANCH   8   9
ENDBRANCH   1   8
TORSDOF 9
ENDMDL
MODEL 12
REMARK VINA RESULT:    -4.249      2.201      3.231
REMARK INTER + INTRA:          -7.170
REMARK INTER:                  -6.547
REMARK INTRA:                  -0.623
REMARK UNBOUND:                -0.809
REMARK SMILES CCCCCCCCCC(=O)O
REMARK SMILES IDX 7 1 8 2 9 3 10 4 11 5 12 6 6 8 5 9 4 10 3 11 2 12 1 13
REMARK H PARENT 12 7
REMARK INDEX MAP 5 1 4 2 3 3 1 4 2 5 12 6 32 7 6 8 7 9 8 10 9 11 10 12 11 13
ROOT
ATOM      1  C   UNL     1      48.122  35.822  29.359  1.00  0.00     0.001 C 
ENDROOT
BRANCH   1   2
ATOM      2  C   UNL     1      47.555  37.184  28.932  1.00  0.00     0.012 C 
BRANCH   2   3
ATOM      3  C   UNL     1      48.305  37.916  27.887  1.00  0.00     0.122 C 
BRANCH   3   4
ATOM      4  C   UNL     1      47.768  37.858  26.463  1.00  0.00     0.303 C 
ATOM      5  O   UNL     1      46.642  37.337  26.249  1.00  0.00    -0.252 OA
BRANCH   4   6
ATOM      6  O   UNL     1      48.457  38.359  25.538  1.00  0.00    -0.481 OA
ATOM      7  H   UNL     1      48.342  39.313  25.296  1.00  0.00     0.296 HD
ENDBRANCH   4   6
ENDBRANCH   3   4
ENDBRANCH   2   3
ENDBRANCH   1   2
BRANCH   1   8
ATOM      8  C   UNL     1      47.487  34.676  28.686  1.00  0.00     0.000 C 
BRANCH   8   9
ATOM      9  C   UNL     1      48.170  33.873  27.740  1.00  0.00     0.000 C 
BRANCH   9  10
ATOM     10  C   UNL     1      47.930  33.958  26.288  1.00  0.00    -0.000 C 
BRANCH  10  11
ATOM     11  C   UNL     1      49.141  33.866  25.477  1.00  0.00    -0.000 C 
BRANCH  11  12
ATOM     12  C   UNL     1      49.785  32.643  25.285  1.00  0.00    -0.003 C 
ATOM     13  C   UNL     1      51.218  32.521  25.241  1.00  0.00     0.004 C 
ENDBRANCH  11  12
ENDBRANCH  10  11
ENDBRANCH   9  10
ENDBRANCH   8   9
ENDBRANCH   1   8
TORSDOF 9
ENDMDL
MODEL 13
REMARK VINA RESULT:    -4.248      1.559      3.116
REMARK INTER + INTRA:          -7.169
REMARK INTER:                  -6.368
REMARK INTRA:                  -0.801
REMARK UNBOUND:                -0.809
REMARK SMILES CCCCCCCCCC(=O)O
REMARK SMILES IDX 7 1 8 2 9 3 10 4 11 5 12 6 6 8 5 9 4 10 3 11 2 12 1 13
REMARK H PARENT 12 7
REMARK INDEX MAP 5 1 4 2 3 3 1 4 2 5 12 6 32 7 6 8 7 9 8 10 9 11 10 12 11 13
ROOT
ATOM      1  C   UNL     1      46.699  35.353  25.069  1.00  0.00     0.001 C 
ENDROOT
BRANCH   1   2
ATOM      2  C   UNL     1      47.741  35.906  26.052  1.00  0.00     0.012 C 
BRANCH   2   3
ATOM      3  C   UNL     1      47.255  36.885  27.050  1.00  0.00     0.122 C 
BRANCH   3   4
ATOM      4  C   UNL     1      47.471  36.558  28.522  1.00  0.00     0.303 C 
ATOM      5  O   UNL     1      47.341  35.369  28.915  1.00  0.00    -0.252 OA
BRANCH   4   6
ATOM      6  O   UNL     1      47.803  37.486  29.303  1.00  0.00    -0.481 OA
ATOM      7  H   UNL     1      47.122  38.127  29.627  1.00  0.00     0.296 HD
ENDBRANCH   4   6
ENDBRANCH   3   4
ENDBRANCH   2   3
ENDBRANCH   1   2
BRANCH   1   8
ATOM      8  C   UNL     1      45.874  34.266  25.625  1.00  0.00     0.000 C 
BRANCH   8   9
ATOM      9  C   UNL     1      46.431  33.167  26.323  1.00  0.00     0.000 C 
BRANCH   9  10
ATOM     10  C   UNL     1      47.087  32.033  25.647  1.00  0.00    -0.000 C 
BRANCH  10  11
ATOM     11  C   UNL     1      48.532  31.971  25.854  1.00  0.00    -0.000 C 
BRANCH  11  12
ATOM     12  C   UNL     1      49.403  32.722  25.062  1.00  0.00    -0.003 C 
ATOM     13  C   UNL     1      50.819  32.780  25.310  1.00  0.00     0.004 C 
ENDBRANCH  11  12
ENDBRANCH  10  11
ENDBRANCH   9  10
ENDBRANCH   8   9
ENDBRANCH   1   8
TORSDOF 9
ENDMDL
MODEL 14
REMARK VINA RESULT:    -4.245      2.481      4.745
REMARK INTER + INTRA:          -7.164
REMARK INTER:                  -6.534
REMARK INTRA:                  -0.630
REMARK UNBOUND:                -0.809
REMARK SMILES CCCCCCCCCC(=O)O
REMARK SMILES IDX 7 1 8 2 9 3 10 4 11 5 12 6 6 8 5 9 4 10 3 11 2 12 1 13
REMARK H PARENT 12 7
REMARK INDEX MAP 5 1 4 2 3 3 1 4 2 5 12 6 32 7 6 8 7 9 8 10 9 11 10 12 11 13
ROOT
ATOM      1  C   UNL     1      47.140  32.801  25.545  1.00  0.00     0.001 C 
ENDROOT
BRANCH   1   2
ATOM      2  C   UNL     1      48.477  33.151  24.875  1.00  0.00     0.012 C 
BRANCH   2   3
ATOM      3  C   UNL     1      49.673  33.160  25.747  1.00  0.00     0.122 C 
BRANCH   3   4
ATOM      4  C   UNL     1      50.944  32.516  25.208  1.00  0.00     0.303 C 
ATOM      5  O   UNL     1      50.854  31.524  24.439  1.00  0.00    -0.252 OA
BRANCH   4   6
ATOM      6  O   UNL     1      52.054  33.015  25.527  1.00  0.00    -0.481 OA
ATOM      7  H   UNL     1      52.891  32.524  25.332  1.00  0.00     0.296 HD
ENDBRANCH   4   6
ENDBRANCH   3   4
ENDBRANCH   2   3
ENDBRANCH   1   2
BRANCH   1   8
ATOM      8  C   UNL     1      46.301  33.975  25.846  1.00  0.00     0.000 C 
BRANCH   8   9
ATOM      9  C   UNL     1      46.513  35.238  25.241  1.00  0.00     0.000 C 
BRANCH   9  10
ATOM     10  C   UNL     1      47.049  36.401  25.973  1.00  0.00    -0.000 C 
BRANCH  10  11
ATOM     11  C   UNL     1      47.441  36.110  27.350  1.00  0.00    -0.000 C 
BRANCH  11  12
ATOM     12  C   UNL     1      47.991  37.101  28.164  1.00  0.00    -0.003 C 
ATOM     13  C   UNL     1      48.309  38.416  27.674  1.00  0.00     0.004 C 
ENDBRANCH  11  12
ENDBRANCH  10  11
ENDBRANCH   9  10
ENDBRANCH   8   9
ENDBRANCH   1   8
TORSDOF 9
ENDMDL
MODEL 15
REMARK VINA RESULT:    -4.164      2.243      4.045
REMARK INTER + INTRA:          -7.042
REMARK INTER:                  -6.441
REMARK INTRA:                  -0.601
REMARK UNBOUND:                -0.809
REMARK SMILES CCCCCCCCCC(=O)O
REMARK SMILES IDX 7 1 8 2 9 3 10 4 11 5 12 6 6 8 5 9 4 10 3 11 2 12 1 13
REMARK H PARENT 12 7
REMARK INDEX MAP 5 1 4 2 3 3 1 4 2 5 12 6 32 7 6 8 7 9 8 10 9 11 10 12 11 13
ROOT
ATOM      1  C   UNL     1      46.136  34.193  25.356  1.00  0.00     0.001 C 
ENDROOT
BRANCH   1   2
ATOM      2  C   UNL     1      46.707  35.618  25.390  1.00  0.00     0.012 C 
BRANCH   2   3
ATOM      3  C   UNL     1      47.690  35.913  26.455  1.00  0.00     0.122 C 
BRANCH   3   4
ATOM      4  C   UNL     1      47.913  37.374  26.825  1.00  0.00     0.303 C 
ATOM      5  O   UNL     1      48.354  37.660  27.968  1.00  0.00    -0.252 OA
BRANCH   4   6
ATOM      6  O   UNL     1      47.675  38.257  25.961  1.00  0.00    -0.481 OA
ATOM      7  H   UNL     1      48.347  38.462  25.264  1.00  0.00     0.296 HD
ENDBRANCH   4   6
ENDBRANCH   3   4
ENDBRANCH   2   3
ENDBRANCH   1   2
BRANCH   1   8
ATOM      8  C   UNL     1      46.869  33.238  26.206  1.00  0.00     0.000 C 
BRANCH   8   9
ATOM      9  C   UNL     1      47.371  32.009  25.714  1.00  0.00     0.000 C 
BRANCH   9  10
ATOM     10  C   UNL     1      48.635  31.899  24.963  1.00  0.00    -0.000 C 
BRANCH  10  11
ATOM     11  C   UNL     1      49.573  32.991  25.210  1.00  0.00    -0.000 C 
BRANCH  11  12
ATOM     12  C   UNL     1      50.910  32.734  25.517  1.00  0.00    -0.003 C 
ATOM     13  C   UNL     1      51.676  31.718  24.846  1.00  0.00     0.004 C 
ENDBRANCH  11  12
ENDBRANCH  10  11
ENDBRANCH   9  10
ENDBRANCH   8   9
ENDBRANCH   1   8
TORSDOF 9
ENDMDL
MODEL 16
REMARK VINA RESULT:    -4.163      1.648      2.351
REMARK INTER + INTRA:          -7.041
REMARK INTER:                  -6.425
REMARK INTRA:                  -0.616
REMARK UNBOUND:                -0.809
REMARK SMILES CCCCCCCCCC(=O)O
REMARK SMILES IDX 7 1 8 2 9 3 10 4 11 5 12 6 6 8 5 9 4 10 3 11 2 12 1 13
REMARK H PARENT 12 7
REMARK INDEX MAP 5 1 4 2 3 3 1 4 2 5 12 6 32 7 6 8 7 9 8 10 9 11 10 12 11 13
ROOT
ATOM      1  C   UNL     1      47.947  36.955  25.930  1.00  0.00     0.001 C 
ENDROOT
BRANCH   1   2
ATOM      2  C   UNL     1      47.808  37.817  27.193  1.00  0.00     0.012 C 
BRANCH   2   3
ATOM      3  C   UNL     1      48.469  37.311  28.417  1.00  0.00     0.122 C 
BRANCH   3   4
ATOM      4  C   UNL     1      47.604  36.581  29.436  1.00  0.00     0.303 C 
ATOM      5  O   UNL     1      47.092  37.229  30.386  1.00  0.00    -0.252 OA
BRANCH   4   6
ATOM      6  O   UNL     1      47.402  35.350  29.282  1.00  0.00    -0.481 OA
ATOM      7  H   UNL     1      48.069  34.794  28.805  1.00  0.00     0.296 HD
ENDBRANCH   4   6
ENDBRANCH   3   4
ENDBRANCH   2   3
ENDBRANCH   1   2
BRANCH   1   8
ATOM      8  C   UNL     1      46.786  36.085  25.673  1.00  0.00     0.000 C 
BRANCH   8   9
ATOM      9  C   UNL     1      46.916  34.774  25.152  1.00  0.00     0.000 C 
BRANCH   9  10
ATOM     10  C   UNL     1      48.015  33.865  25.526  1.00  0.00    -0.000 C 
BRANCH  10  11
ATOM     11  C   UNL     1      47.710  32.995  26.659  1.00  0.00    -0.000 C 
BRANCH  11  12
ATOM     12  C   UNL     1      46.684  32.053  26.583  1.00  0.00    -0.003 C 
ATOM     13  C   UNL     1      46.636  31.039  25.563  1.00  0.00     0.004 C 
ENDBRANCH  11  12
ENDBRANCH  10  11
ENDBRANCH   9  10
ENDBRANCH   8   9
ENDBRANCH   1   8
TORSDOF 9
ENDMDL
MODEL 17
REMARK VINA RESULT:    -4.163      1.783      3.956
REMARK INTER + INTRA:          -7.041
REMARK INTER:                  -6.210
REMARK INTRA:                  -0.831
REMARK UNBOUND:                -0.809
REMARK SMILES CCCCCCCCCC(=O)O
REMARK SMILES IDX 7 1 8 2 9 3 10 4 11 5 12 6 6 8 5 9 4 10 3 11 2 12 1 13
REMARK H PARENT 12 7
REMARK INDEX MAP 5 1 4 2 3 3 1 4 2 5 12 6 32 7 6 8 7 9 8 10 9 11 10 12 11 13
ROOT
ATOM      1  C   UNL     1      47.925  36.539  25.909  1.00  0.00     0.001 C 
ENDROOT
BRANCH   1   2
ATOM      2  C   UNL     1      46.566  35.884  25.621  1.00  0.00     0.012 C 
BRANCH   2   3
ATOM      3  C   UNL     1      46.569  34.731  24.694  1.00  0.00     0.122 C 
BRANCH   3   4
ATOM      4  C   UNL     1      47.228  33.444  25.172  1.00  0.00     0.303 C 
ATOM      5  O   UNL     1      48.448  33.248  24.930  1.00  0.00    -0.252 OA
BRANCH   4   6
ATOM      6  O   UNL     1      46.537  32.619  25.824  1.00  0.00    -0.481 OA
ATOM      7  H   UNL     1      46.267  31.762  25.409  1.00  0.00     0.296 HD
ENDBRANCH   4   6
ENDBRANCH   3   4
ENDBRANCH   2   3
ENDBRANCH   1   2
BRANCH   1   8
ATOM      8  C   UNL     1      47.825  37.835  26.604  1.00  0.00     0.000 C 
BRANCH   8   9
ATOM      9  C   UNL     1      48.151  37.992  27.973  1.00  0.00     0.000 C 
BRANCH   9  10
ATOM     10  C   UNL     1      47.637  37.101  29.030  1.00  0.00    -0.000 C 
BRANCH  10  11
ATOM     11  C   UNL     1      48.658  36.261  29.651  1.00  0.00    -0.000 C 
BRANCH  11  12
ATOM     12  C   UNL     1      48.646  34.876  29.485  1.00  0.00    -0.003 C 
ATOM     13  C   UNL     1      47.581  34.187  28.805  1.00  0.00     0.004 C 
ENDBRANCH  11  12
ENDBRANCH  10  11
ENDBRANCH   9  10
ENDBRANCH   8   9
ENDBRANCH   1   8
TORSDOF 9
ENDMDL
MODEL 18
REMARK VINA RESULT:    -4.149      1.519      4.092
REMARK INTER + INTRA:          -7.021
REMARK INTER:                  -6.444
REMARK INTRA:                  -0.577
REMARK UNBOUND:                -0.809
REMARK SMILES CCCCCCCCCC(=O)O
REMARK SMILES IDX 7 1 8 2 9 3 10 4 11 5 12 6 6 8 5 9 4 10 3 11 2 12 1 13
REMARK H PARENT 12 7
REMARK INDEX MAP 5 1 4 2 3 3 1 4 2 5 12 6 32 7 6 8 7 9 8 10 9 11 10 12 11 13
ROOT
ATOM      1  C   UNL     1      47.840  33.674  25.159  1.00  0.00     0.001 C 
ENDROOT
BRANCH   1   2
ATOM      2  C   UNL     1      47.752  32.554  26.206  1.00  0.00     0.012 C 
BRANCH   2   3
ATOM      3  C   UNL     1      46.430  32.336  26.834  1.00  0.00     0.122 C 
BRANCH   3   4
ATOM      4  C   UNL     1      46.272  32.723  28.299  1.00  0.00     0.303 C 
ATOM      5  O   UNL     1      46.861  33.748  28.732  1.00  0.00    -0.252 OA
BRANCH   4   6
ATOM      6  O   UNL     1      45.532  32.019  29.032  1.00  0.00    -0.481 OA
ATOM      7  H   UNL     1      45.034  31.256  28.645  1.00  0.00     0.296 HD
ENDBRANCH   4   6
ENDBRANCH   3   4
ENDBRANCH   2   3
ENDBRANCH   1   2
BRANCH   1   8
ATOM      8  C   UNL     1      46.662  34.558  25.133  1.00  0.00     0.000 C 
BRANCH   8   9
ATOM      9  C   UNL     1      46.732  35.931  25.474  1.00  0.00     0.000 C 
BRANCH   9  10
ATOM     10  C   UNL     1      47.992  36.610  25.827  1.00  0.00    -0.000 C 
BRANCH  10  11
ATOM     11  C   UNL     1      47.810  37.916  26.455  1.00  0.00    -0.000 C 
BRANCH  11  12
ATOM     12  C   UNL     1      48.189  38.134  27.780  1.00  0.00    -0.003 C 
ATOM     13  C   UNL     1      48.015  37.143  28.808  1.00  0.00     0.004 C 
ENDBRANCH  11  12
ENDBRANCH  10  11
ENDBRANCH   9  10
ENDBRANCH   8   9
ENDBRANCH   1   8
TORSDOF 9
ENDMDL
MODEL 19
REMARK VINA RESULT:    -4.079      3.345      4.765
REMARK INTER + INTRA:          -6.915
REMARK INTER:                  -6.627
REMARK INTRA:                  -0.288
REMARK UNBOUND:                -0.809
REMARK SMILES CCCCCCCCCC(=O)O
REMARK SMILES IDX 7 1 8 2 9 3 10 4 11 5 12 6 6 8 5 9 4 10 3 11 2 12 1 13
REMARK H PARENT 12 7
REMARK INDEX MAP 5 1 4 2 3 3 1 4 2 5 12 6 32 7 6 8 7 9 8 10 9 11 10 12 11 13
ROOT
ATOM      1  C   UNL     1      47.839  35.371  31.754  1.00  0.00     0.001 C 
ENDROOT
BRANCH   1   2
ATOM      2  C   UNL     1      47.635  33.986  32.387  1.00  0.00     0.012 C 
BRANCH   2   3
ATOM      3  C   UNL     1      46.997  33.955  33.722  1.00  0.00     0.122 C 
BRANCH   3   4
ATOM      4  C   UNL     1      45.475  33.924  33.775  1.00  0.00     0.303 C 
ATOM      5  O   UNL     1      44.881  34.465  34.744  1.00  0.00    -0.252 OA
BRANCH   4   6
ATOM      6  O   UNL     1      44.850  33.379  32.830  1.00  0.00    -0.481 OA
ATOM      7  H   UNL     1      45.101  33.574  31.892  1.00  0.00     0.296 HD
ENDBRANCH   4   6
ENDBRANCH   3   4
ENDBRANCH   2   3
ENDBRANCH   1   2
BRANCH   1   8
ATOM      8  C   UNL     1      48.631  35.346  30.512  1.00  0.00     0.000 C 
BRANCH   8   9
ATOM      9  C   UNL     1      48.100  35.749  29.262  1.00  0.00     0.000 C 
BRANCH   9  10
ATOM     10  C   UNL     1      47.700  37.137  28.968  1.00  0.00    -0.000 C 
BRANCH  10  11
ATOM     11  C   UNL     1      48.069  37.593  27.629  1.00  0.00    -0.000 C 
BRANCH  11  12
ATOM     12  C   UNL     1      47.176  37.482  26.562  1.00  0.00    -0.003 C 
ATOM     13  C   UNL     1      47.125  36.322  25.713  1.00  0.00     0.004 C 
ENDBRANCH  11  12
ENDBRANCH  10  11
ENDBRANCH   9  10
ENDBRANCH   8   9
ENDBRANCH   1   8
TORSDOF 9
ENDMDL
MODEL 20
REMARK VINA RESULT:    -4.032      1.686      4.262
REMARK INTER + INTRA:          -6.845
REMARK INTER:                  -6.126
REMARK INTRA:                  -0.719
REMARK UNBOUND:                -0.809
REMARK SMILES CCCCCCCCCC(=O)O
REMARK SMILES IDX 7 1 8 2 9 3 10 4 11 5 12 6 6 8 5 9 4 10 3 11 2 12 1 13
REMARK H PARENT 12 7
REMARK INDEX MAP 5 1 4 2 3 3 1 4 2 5 12 6 32 7 6 8 7 9 8 10 9 11 10 12 11 13
ROOT
ATOM      1  C   UNL     1      47.898  37.861  26.685  1.00  0.00     0.001 C 
ENDROOT
BRANCH   1   2
ATOM      2  C   UNL     1      47.047  36.718  26.112  1.00  0.00     0.012 C 
BRANCH   2   3
ATOM      3  C   UNL     1      47.732  35.424  25.897  1.00  0.00     0.122 C 
BRANCH   3   4
ATOM      4  C   UNL     1      47.039  34.166  26.403  1.00  0.00     0.303 C 
ATOM      5  O   UNL     1      46.857  34.018  27.640  1.00  0.00    -0.252 OA
BRANCH   4   6
ATOM      6  O   UNL     1      46.640  33.319  25.564  1.00  0.00    -0.481 OA
ATOM      7  H   UNL     1      46.717  33.507  24.596  1.00  0.00     0.296 HD
ENDBRANCH   4   6
ENDBRANCH   3   4
ENDBRANCH   2   3
ENDBRANCH   1   2
BRANCH   1   8
ATOM      8  C   UNL     1      48.334  37.638  28.074  1.00  0.00     0.000 C 
BRANCH   8   9
ATOM      9  C   UNL     1      47.433  37.281  29.107  1.00  0.00     0.000 C 
BRANCH   9  10
ATOM     10  C   UNL     1      47.718  36.223  30.093  1.00  0.00    -0.000 C 
BRANCH  10  11
ATOM     11  C   UNL     1      49.046  35.628  29.963  1.00  0.00    -0.000 C 
BRANCH  11  12
ATOM     12  C   UNL     1      49.914  35.562  31.054  1.00  0.00    -0.003 C 
ATOM     13  C   UNL     1      49.458  35.688  32.413  1.00  0.00     0.004 C 
ENDBRANCH  11  12
ENDBRANCH  10  11
ENDBRANCH   9  10
ENDBRANCH   8   9
ENDBRANCH   1   8
TORSDOF 9
ENDMDL
